# vtk DataFile Version 2.0
Unstructured Grid
ASCII
DATASET UNSTRUCTURED_GRID
POINTS 9085 double
+5.14132960587000009E+05 +8.50531652074700035E+06 -2.07273822400000017E+03
+5.14136278935000009E+05 +8.50378730160400085E+06 -2.14001967199999990E+03
+5.14163752658999991E+05 +8.50225844777300023E+06 -2.21117927800000007E+03
+5.14184434657000005E+05 +8.50684531043899991E+06 -2.01411076699999990E+03
+5.14222251606000005E+05 +8.50073074197199941E+06 -2.28732305300000007E+03
+5.14306656477999990E+05 +8.50826293153399974E+06 -2.02301077099999998E+03
+5.14312397138000000E+05 +8.49920479968800023E+06 -2.36852496599999995E+03
+5.14394303419000003E+05 +8.50465773617899977E+06 -2.32012827800000014E+03
+5.14404966816000000E+05 +8.49767902301399969E+06 -2.45011301000000003E+03
+5.14466271278999979E+05 +8.50977171346299909E+06 -2.02548801499999990E+03
+5.14474229258999985E+05 +8.50575591897699982E+06 -2.33042442100000017E+03
+5.14516879470999993E+05 +8.49615469001300074E+06 -2.53477680300000020E+03
+5.14626116597999993E+05 +8.49463014626600035E+06 -2.61901568399999996E+03
+5.14646155471000005E+05 +8.51127792927600071E+06 -2.01733230600000002E+03
+5.14761134801000007E+05 +8.49310790401200019E+06 -2.70733737000000019E+03
+5.14801550205999985E+05 +8.50239291505200043E+06 -2.74185299600000008E+03
+5.14802072173000022E+05 +8.50390678803100064E+06 -2.69031329999999980E+03
+5.14821125241999980E+05 +8.50542066422099993E+06 -2.64103491200000008E+03
+5.14831662786000001E+05 +8.50087947098499909E+06 -2.79711660500000016E+03
+5.14856709267000027E+05 +8.50605618025900051E+06 -2.63499570099999983E+03
+5.14873644404000021E+05 +8.51277797058399953E+06 -2.02143145400000003E+03
+5.14885819873999979E+05 +8.49936677030199952E+06 -2.85528931999999986E+03
+5.14886187972999993E+05 +8.49158471233999915E+06 -2.79408350299999984E+03
+5.14946865876999975E+05 +8.50895726188299991E+06 -2.49606313499999987E+03
+5.14952225745000003E+05 +8.49785460301899910E+06 -2.91493856300000016E+03
+5.15027139413999976E+05 +8.49006306441600062E+06 -2.88334196100000008E+03
+5.15028556565999985E+05 +8.49634295208300091E+06 -2.97577030599999989E+03
+5.15109691983999975E+05 +8.49483156458999962E+06 -3.03704443600000013E+03
+5.15148402974000026E+05 +8.50754765880599990E+06 -2.77455217099999982E+03
+5.15161205507999985E+05 +8.51426562338799983E+06 -2.02895332400000007E+03
+5.15164284920000006E+05 +8.48854102263399959E+06 -2.97199998300000016E+03
+5.15205106169999985E+05 +8.49332105778400041E+06 -3.09905035200000020E+03
+5.15295957211999979E+05 +8.48701844973500073E+06 -3.05979310200000009E+03
+5.15307795604999992E+05 +8.49165239261000045E+06 -3.16626704999999993E+03
+5.15336011112999986E+05 +8.47640433087399974E+06 -3.34885172899999998E+03
+5.15354053156999988E+05 +8.47490449765600078E+06 -3.38737996000000021E+03
+5.15359626797000004E+05 +8.47790412137800083E+06 -3.31531640000000016E+03
+5.15368498361999984E+05 +8.47340462955999933E+06 -3.42554656999999997E+03
+5.15374580421000021E+05 +8.50571263094400056E+06 -3.08018209399999978E+03
+5.15381266277000017E+05 +8.47940401052800007E+06 -3.28163426200000004E+03
+5.15404125727000006E+05 +8.47190517779600061E+06 -3.46629301699999996E+03
+5.15404972260000010E+05 +8.48549407059600018E+06 -3.13910216799999989E+03
+5.15420597356999991E+05 +8.48998442083200067E+06 -3.23435594099999980E+03
+5.15423216420000012E+05 +8.48090352491999976E+06 -3.25046673899999996E+03
+5.15434416575999989E+05 +8.48396421522100084E+06 -3.18217554599999994E+03
+5.15439451747999992E+05 +8.48243387354799919E+06 -3.21806614600000012E+03
+5.15452230657999986E+05 +8.47040612089399993E+06 -3.50861424399999987E+03
+5.15482468111999973E+05 +8.50902818236899935E+06 -2.93370997100000022E+03
+5.15506239726000000E+05 +8.46890727638299949E+06 -3.55176692400000002E+03
+5.15532660205000022E+05 +8.51573657155100070E+06 -2.04527066300000001E+03
+5.15533673332999984E+05 +8.48831645979299955E+06 -3.30240333099999998E+03
+5.15570385001000017E+05 +8.46740890886499919E+06 -3.59708318499999996E+03
+5.15640526217999985E+05 +8.48664804162899964E+06 -3.36909789600000022E+03
+5.15661517264000024E+05 +8.46591241209599935E+06 -3.65531621099999984E+03
+5.15686048991999996E+05 +8.50467622876299918E+06 -3.38787221399999999E+03
+5.15717004231999977E+05 +8.48497788766900077E+06 -3.43184041699999989E+03
+5.15755051279000007E+05 +8.48330624372600019E+06 -3.49171337600000015E+03
+5.15771803037000005E+05 +8.47996202647499926E+06 -3.60733419899999990E+03
+5.15773465856000024E+05 +8.48163419012900069E+06 -3.54965027800000007E+03
+5.15778298493999988E+05 +8.47840256817799993E+06 -3.66831599099999994E+03
+5.15795019747000013E+05 +8.47684318884300068E+06 -3.72928637399999980E+03
+5.15808880111999984E+05 +8.50658054102499969E+06 -3.38536531599999989E+03
+5.15813268097000022E+05 +8.46442368854399957E+06 -3.75441746100000000E+03
+5.15831192953000020E+05 +8.47528423706799932E+06 -3.79176287000000002E+03
+5.15857347823999997E+05 +8.51049786191399954E+06 -3.10204978900000015E+03
+5.15882699215999979E+05 +8.47372576757900044E+06 -3.85651393999999982E+03
+5.15902314223000023E+05 +8.51720800003200024E+06 -2.05912157600000000E+03
+5.15945526898999989E+05 +8.47216774565999955E+06 -3.92202339299999994E+03
+5.15966589701000019E+05 +8.50318240121299960E+06 -3.68395435600000019E+03
+5.15981829122999974E+05 +8.50169319081299938E+06 -3.74716192799999999E+03
+5.16017157872000011E+05 +8.50020198833299987E+06 -3.79903219900000022E+03
+5.16017962363999977E+05 +8.47061013930799998E+06 -3.98743013699999983E+03
+5.16035627432000008E+05 +8.46294674722499959E+06 -3.89764745399999993E+03
+5.16072573317000002E+05 +8.49869991204800084E+06 -3.86285507300000017E+03
+5.16098156148999988E+05 +8.46905290353799984E+06 -4.05273471800000016E+03
+5.16140014593000000E+05 +8.49719632749399915E+06 -3.92692134900000019E+03
+5.16193666380000010E+05 +8.46749654526999965E+06 -4.11783175500000016E+03
+5.16217365606000007E+05 +8.49569134521000087E+06 -3.99246823899999981E+03
+5.16280389136000013E+05 +8.51195490748300031E+06 -3.26653815500000019E+03
+5.16286456988000020E+05 +8.51867563049400039E+06 -2.07467397600000004E+03
+5.16297478301000025E+05 +8.46594074143099971E+06 -4.18355159499999991E+03
+5.16298966295999999E+05 +8.49418903007899970E+06 -4.05735182399999985E+03
+5.16345837424000027E+05 +8.46138770504599996E+06 -4.07164735000000019E+03
+5.16393590888999985E+05 +8.49259677360999957E+06 -4.12733521899999960E+03
+5.16425576994000003E+05 +8.46438699048900045E+06 -4.25497753800000010E+03
+5.16440406920999987E+05 +8.50793115129600093E+06 -3.81158798200000001E+03
+5.16498403330000001E+05 +8.49093596810000017E+06 -4.20122212200000013E+03
+5.16572256114999996E+05 +8.50535669419500045E+06 -4.08377822199999991E+03
+5.16572898543999996E+05 +8.46283500247799978E+06 -4.32697310300000026E+03
+5.16606901887000015E+05 +8.48926821664899960E+06 -4.27799588000000040E+03
+5.16653501542999991E+05 +8.45982812263000011E+06 -4.24522778500000004E+03
+5.16711099158999976E+05 +8.48759485944299959E+06 -4.35236918799999967E+03
+5.16725325585999992E+05 +8.51340656262999959E+06 -3.42076976500000001E+03
+5.16746598880000005E+05 +8.46128571948800050E+06 -4.39859009900000001E+03
+5.16766432947000023E+05 +8.52011388330199942E+06 -2.10728455900000017E+03
+5.16793614624999987E+05 +8.50936861025499925E+06 -3.97819250800000009E+03
+5.16798914905000012E+05 +8.48590269260600023E+06 -4.42359292900000037E+03
+5.16857196312999993E+05 +8.48420427900600061E+06 -4.48582730300000003E+03
+5.16891315615999978E+05 +8.48251792121200077E+06 -4.53903116599999976E+03
+5.16907937607000000E+05 +8.48083182008700073E+06 -4.58820453300000008E+03
+5.16919503192999982E+05 +8.47922613265899941E+06 -4.63676241599999958E+03
+5.16931336665000010E+05 +8.45973767792000063E+06 -4.47002862600000026E+03
+5.16940174980000011E+05 +8.47767697835700028E+06 -4.69202055300000029E+03
+5.16968532697000017E+05 +8.47612999651700072E+06 -4.74549422200000026E+03
+5.16980755057999981E+05 +8.45827289643100090E+06 -4.42202064700000028E+03
+5.17015615497999999E+05 +8.47458402026999928E+06 -4.80434757699999955E+03
+5.17067853258999996E+05 +8.50421669359900057E+06 -4.54589382600000044E+03
+5.17077254446999985E+05 +8.47303396439499967E+06 -4.86756221999999980E+03
+5.17124524596999981E+05 +8.50651343871399947E+06 -4.46947474099999999E+03
+5.17131687284999993E+05 +8.45819156560800038E+06 -4.54122866599999998E+03
+5.17143007026000007E+05 +8.50248410675599985E+06 -4.67999217800000042E+03
+5.17146476398000028E+05 +8.47148390862400085E+06 -4.93094225300000016E+03
+5.17165353498000011E+05 +8.50101725667399913E+06 -4.73970253099999991E+03
+5.17186235135000024E+05 +8.51080359649600089E+06 -4.13545301099999961E+03
+5.17208346269999980E+05 +8.51484620639799908E+06 -3.57229207099999985E+03
+5.17208502436999988E+05 +8.49953526619100012E+06 -4.80480644800000027E+03
+5.17210910755000019E+05 +8.51763920161800086E+06 -3.04805810999999994E+03
+5.17225482445999980E+05 +8.46993448562600091E+06 -4.99254140900000039E+03
+5.17239444845999999E+05 +8.44873598571100086E+06 -3.97500493599999982E+03
+5.17240898394000018E+05 +8.45670414548899978E+06 -4.53180988400000024E+03
+5.17265415052000026E+05 +8.49804180103399977E+06 -4.87326991999999973E+03
+5.17265823687000026E+05 +8.52154612681899965E+06 -2.14227883699999984E+03
+5.17312918353000015E+05 +8.46838678330999985E+06 -5.05229198600000018E+03
+5.17319951854999992E+05 +8.45510823733500019E+06 -4.48603577599999971E+03
+5.17322444148999988E+05 +8.45032415272999927E+06 -4.14011113500000010E+03
+5.17330514955000021E+05 +8.49654221324899979E+06 -4.94062953600000037E+03
+5.17338134358000010E+05 +8.45351242434900068E+06 -4.38809196299999985E+03
+5.17341381151999987E+05 +8.45191780285199918E+06 -4.26861802900000021E+03
+5.17343306258999975E+05 +8.45664702659399994E+06 -4.61365786200000002E+03
+5.17403989505000005E+05 +8.49504599818499945E+06 -5.00828556599999956E+03
[...]
CELL_DATA 18298
SCALARS orig_triangle_id int 1
LOOKUP_TABLE default
15375
15376
15377
15379
15380
15381
15382
15383
15384
15386
15387
15388
15389
15390
15391
15392
15393
15394
15395
15396
15397
15398
15399
15400
15401
15402
15403
15404
15405
15406
15407
15408
15409
15410
15411
15412
15413
15414
15415
15419
15420
15421
15422
15423
15424
15425
15426
15427
15428
15429
15430
15431
15432
15433
15434
15435
15436
15437
15438
15439
15440
15441
15442
15443
15444
15445
15446
15447
15448
15449
15450
15451
15452
15453
15454
15455
15456
15457
15458
15459
15460
15462
15463
15464
15465
15466
15467
15468
15469
15470
15471
15472
15473
15474
15475
15476
15477
15478
15479
15480
15481
15482
15483
15484
15485
15486
15487
15488
15489
15491
15492
15493
15494
15496
15497
15498
15499
15500
15501
15502
15503
15504
15505
15506
15507
15508
15509
15510
15511
15512
15514
15515
15516
15517
15518
15519
15520
15521
15522
15523
15524
15525
15526
15527
15528
15529
15530
15531
15532
15533
15534
15535
15536
15537
15538
15539
15540
15541
15542
15543
15544
15545
15546
15548
15549
15550
15551
15552
15553
15554
15555
15556
15557
15558
15559
15560
15561
15562
15563
15564
15565
15566
15567
15568
15569
15570
15571
15572
15573
15574
15575
15576
15577
15578
15579
15580
15581
15582
15583
15584
15585
15586
15588
15589
15590
15591
15592
15593
15594
15595
15596
15597
15598
15599
15600
15601
15602
15603
15604
15605
15606
15607
15608
15609
15610
15611
15612
15613
15614
15615
15616
15617
15618
15619
15620
15621
15622
15623
15624
15625
15626
15627
15628
15629
15630
15631
15632
15633
15634
15635
15636
15637
15638
15639
15640
15641
15642
15643
15644
15645
15646
15647
15648
15649
15650
15651
15652
15653
15654
15655
15656
15657
15658
15659
15660
15661
15662
15663
15664
15666
15667
15668
15670
15671
15672
15673
15674
15675
15676
15677
15679
15680
15681
15682
15683
15684
15685
15689
15690
15691
15692
15694
15695
15696
15697
15698
15699
15700
15701
15702
15703
15704
15705
15706
15707
15708
15709
15710
15711
15712
15713
15714
15715
15716
15717
15718
15721
15722
15723
15724
15725
15726
15727
15728
15729
15730
15731
15732
15734
15735
15736
15740
15741
15742
15743
15744
15745
15746
15747
15748
15749
15750
15751
15752
15753
15754
15755
15756
15757
15758
15759
15760
15761
15762
15763
15764
15765
15766
15767
15768
15769
15770
15771
15772
15773
15774
15775
15777
15778
15779
15780
15781
15782
15783
15784
15785
15786
15787
15788
15789
15790
15791
15792
15793
15794
15795
15796
15797
15798
15799
15800
15801
15802
15803
15804
15805
15806
15807
15808
15809
15810
15811
15812
15813
15814
15815
15816
15817
15818
15819
15820
15821
15822
15823
15824
15825
15826
15827
15828
15829
15830
15831
15832
15833
15834
15835
15836
15837
15838
15839
15840
15841
15842
15843
15844
15845
15846
15847
15848
15849
15850
15851
15852
15853
15854
15855
15856
15857
15858
15859
15860
15861
15862
15863
15864
15865
15866
15867
15868
15869
15870
15871
15872
15873
15874
15875
15876
15877
15878
15879
15880
15881
15882
15883
15884
15885
15886
15887
15888
15889
15892
15893
15894
15895
15896
15897
15898
15899
15900
15901
15902
15903
15904
15905
15906
15907
15908
15909
15910
15911
15912
15913
15914
15915
15916
15917
15918
15919
15920
15921
15922
15923
15928
15929
15930
15931
15932
15933
15934
15935
15936
15937
15938
15939
15944
15945
15946
15947
15948
15949
15950
15951
15952
15953
15954
15955
15956
15957
15958
15959
15960
15961
15962
15963
15964
15965
15966
15967
15968
15969
15970
15971
15972
15973
15974
15975
15976
15977
15978
15979
15980
15981
15982
15983
15984
15985
15986
15987
15988
15989
15990
15991
15992
15993
15994
15995
15996
15997
15998
15999
16000
16001
16002
16003
16004
16005
16006
16007
16008
16009
16010
16011
16012
16013
13434
13435
13436
13437
13438
13439
13440
13441
13442
13443
13444
13445
13447
13448
13449
13450
13451
13453
13459
13460
13461
13462
13463
13464
13465
13466
13467
13468
13469
13470
13471
13472
13473
13474
13475
13476
13477
13478
13480
13481
13482
13483
13484
13485
13486
13487
13488
13489
13490
13491
13492
13493
13494
13495
13496
13497
13498
13499
13500
13501
13502
13503
13504
13505
13506
13507
13508
13509
13510
13511
13512
13513
13514
13515
13516
13517
13518
13519
13520
13521
13522
13523
13524
13525
13526
13527
13528
13529
13530
13532
13533
13534
13537
13538
13539
13540
13541
13542
13543
13545
13546
13547
13548
13549
13550
13551
13552
13553
13554
13555
13556
13557
13558
13560
13561
13562
13563
13564
13565
13566
13568
13569
13570
13571
13572
13573
13574
13575
13576
13577
13578
13579
13580
13581
13582
13583
13584
13585
13586
13587
13588
13589
13590
13591
13592
13593
13594
13595
13596
13597
13598
13599
13600
13601
13602
13603
13604
13605
13606
13607
13608
13609
13610
13612
13614
13615
13616
13617
13618
13619
13620
13626
13627
13628
13629
13630
13631
13632
13633
13634
13635
13636
13637
13638
13639
13640
13641
13642
13643
13644
13645
13646
13647
13648
13649
13650
13651
13652
13653
13654
13655
13658
13659
13660
13661
13662
13663
13664
13665
13666
13667
13668
13669
13670
13671
13672
13673
13674
13675
13676
13677
13678
13679
13680
13681
13682
13683
13684
13685
13686
13687
13688
13689
13690
13691
13692
13693
13694
13695
13696
13697
13698
13699
13700
13701
13702
13703
13704
13705
13706
13707
13708
13709
13710
13711
13712
13717
13718
13719
13720
13721
13722
13723
13724
13725
13726
13727
13728
13729
13730
13731
13732
13733
13734
13735
13736
13737
13738
13739
13740
13741
13742
13743
13744
13745
13746
13748
13749
13750
13751
13752
13753
13754
13755
13756
13757
13758
13759
13760
13761
13762
13763
13764
13765
13766
13767
13768
13769
13770
13771
13772
13773
13774
13775
13776
13777
13778
13779
13780
13781
13782
13783
13784
13785
13786
13787
13788
13789
13790
13791
13792
13793
13794
13795
13796
13797
13798
13799
13800
13801
13802
13803
13804
13805
13806
13807
13808
13809
13810
13811
13812
13813
13814
13815
13816
13817
13818
13819
13820
13821
13822
13823
13824
13825
13826
13827
13828
13829
13830
13831
13832
13833
13834
13835
13836
13837
13838
13839
13840
13841
13842
13843
13844
13845
13846
13847
13848
13849
13850
13851
13852
13853
13854
13855
13856
13857
13858
13859
13860
13861
13862
13863
13864
13865
13866
13867
13868
13869
13870
13871
13872
13873
13874
13875
13876
13877
13878
13879
13880
13881
13882
13884
13886
13887
13889
13890
13891
13892
13893
13894
13895
13896
13897
13898
13899
13900
13901
13902
13903
13904
13905
13906
13907
13908
13909
13910
13911
13912
13913
13914
13915
13916
13917
13918
13920
13922
13923
13925
13926
13927
13928
13929
13930
13931
13932
13933
13934
13935
13936
13937
13938
13939
13940
13941
13942
13943
13945
13946
13947
13948
13949
13950
13951
13952
13953
13954
13955
13956
13957
13958
13959
13960
13961
13962
13964
13965
13966
13967
13968
13969
13970
13971
13972
13973
13974
13975
13976
13977
13978
13979
13980
13981
13982
13983
13984
13985
13986
13987
13988
13989
13990
13991
13992
13993
13994
13996
13997
13998
13999
14000
14001
14002
14003
14004
14005
14006
14007
14008
14009
14010
14011
14012
14013
14014
14015
14016
14017
14018
14020
14021
14022
14023
14024
14025
14026
14027
14028
14029
14030
14031
14032
14033
14034
14035
14036
14037
14038
14039
14040
14041
14042
14043
14044
14045
14046
14047
14048
14049
14050
14051
14053
14054
14055
14056
14057
14058
14059
14060
14061
14062
14063
14065
14067
14068
14071
14072
14073
14074
14075
14076
14077
14078
14079
14080
14081
14082
14083
14084
14085
14086
14087
14088
14089
14090
14091
14092
14093
14094
14095
14096
14097
14098
14099
14100
14103
14104
14105
14106
14107
14108
14109
14110
14111
14112
14113
14114
14115
14116
14117
14118
14119
14120
14121
14122
14123
14124
14125
14126
14127
14128
14129
14131
14141
14143
14144
14145
14146
14147
14148
14149
14150
14151
14152
14153
14154
14155
14156
14157
14158
14159
14161
14162
14163
14164
14165
14166
14167
14168
14169
14172
14173
14174
14175
14176
14177
14178
14179
14180
14181
14182
14183
14184
14185
14186
14187
14188
14189
14190
14191
14192
14193
14194
14195
14196
14197
14198
14199
14200
14202
14203
14204
14205
14206
14207
14208
14209
14210
14211
14212
14213
14214
14215
14216
14217
14218
14219
14220
14221
14222
14223
14224
14225
14226
14227
14228
14229
14232
14233
14243
14244
14245
14246
14247
14248
14249
14250
14251
14252
14253
14254
14256
14257
14258
14259
14260
14261
14262
14263
14264
14265
14266
14267
14268
14269
14270
14272
14273
14274
14275
14276
14277
14278
14279
14280
14281
14282
14283
14284
14285
14286
14287
14288
14289
14290
14291
14292
14293
14294
14295
14296
14297
14298
14299
14300
14301
14302
14303
14304
14305
14306
14307
14308
14309
14310
14311
14312
14313
14314
14315
14316
14317
14318
14319
14320
14321
14322
14323
14324
14325
14326
14327
14328
14329
14330
14331
14332
14333
14334
14335
14336
14337
14338
14339
14340
14341
14342
14343
14344
14345
14346
14347
14349
14350
14351
14352
14353
14354
14355
14356
14357
14358
14359
14360
14361
14362
14363
14364
14365
14366
14367
14368
14369
14370
14371
14372
14373
14374
14375
14376
14377
14378
14379
14380
14381
14382
14383
14384
14385
14386
14387
14388
14389
14390
14391
14392
14393
14394
14395
14396
14397
14398
14399
14400
14401
14402
14403
14404
14405
14406
14407
14408
14409
14410
14411
14412
14413
14414
14415
14416
14417
14418
14419
14420
14421
14422
14423
14424
14425
14426
14427
14428
14429
14430
14432
14433
14434
14435
14436
14437
14438
14439
14440
14441
14442
14443
14444
14445
14446
14447
14448
14449
14450
14451
14452
14453
14454
14455
14456
14457
14458
14459
14460
14461
14462
14463
14464
14465
14466
14467
14468
14469
14470
14471
14472
14473
14474
14475
14476
14477
14478
14479
14480
14481
14482
14483
14484
14485
14486
14487
14488
14489
14490
14491
14492
14493
14494
14495
14496
14497
14498
14499
14500
14501
14502
14503
14504
14506
14507
14508
14509
14510
14511
14512
14513
14514
14515
14516
14517
14518
14519
14520
14521
14522
14523
14524
14525
14526
14527
14528
14529
14530
14531
14532
14533
14534
14535
14536
14537
14538
14539
14540
14541
14542
14543
14544
14545
14546
14547
14548
14549
14550
14551
14552
14553
14554
14555
14556
14557
14558
14559
14560
14561
14562
14563
14564
14565
14566
14567
14568
14569
14570
14571
14572
14573
14575
14576
14577
14578
14579
14580
14581
14582
14583
14584
14585
14586
14587
14588
14589
14590
14591
14592
14593
14594
14595
14596
14597
14598
14599
14600
14601
14602
14603
14604
14605
14606
14607
14608
14609
14610
14611
14612
14613
14614
14615
14616
14617
14618
14619
14620
14621
14622
14623
14624
14625
14626
14627
14628
14629
14630
14631
14632
14633
14634
14635
14636
14637
14639
14640
14641
14642
14643
14644
14645
14646
14647
14648
14649
14650
14651
14652
14653
14654
14655
14656
14657
14658
14659
14660
14661
14662
14663
14664
14665
14666
14667
14668
14669
14670
14671
14672
14673
14674
14675
14676
14677
14678
14679
14680
14681
14682
14683
14684
14685
14686
14687
14688
14689
14690
14691
14692
14693
14694
14695
14696
14697
14698
14700
14701
14702
14703
14704
14705
14706
14707
14708
14709
14710
14711
14712
14713
14714
14715
14716
14717
14718
14719
14720
14721
14722
14723
14724
14725
14726
14727
14728
14729
14730
14731
14732
14733
14734
14735
14736
14737
14739
14740
14742
14743
14744
14745
14746
14747
14748
14749
14750
14751
14752
14753
14754
14755
14756
14757
14758
14759
14760
14761
14762
14763
14764
14765
14766
14767
14768
14769
14770
14771
14772
14773
14774
14775
14776
14777
14778
14779
14780
14781
14782
14783
14784
14785
14786
14787
14788
14789
14790
14791
14792
14794
14795
14797
14798
14799
14800
14801
14802
14803
14804
14805
14806
14807
14808
14809
14810
14811
14812
14813
14814
14815
14816
14817
14818
14819
14820
14821
14822
14823
14824
14825
14826
14827
14828
14829
14830
14831
14832
14833
14834
14835
14838
14839
14840
14841
14842
14843
14844
14846
14847
14848
14849
14850
14851
14852
14853
14854
14855
14856
14857
14858
14859
14860
14861
14862
14863
14864
14865
14866
14867
14868
14869
14870
14871
14872
14873
14874
14875
14876
14877
14878
14879
14880
14881
14882
14883
14884
14887
14888
14889
14890
14891
14892
14893
14894
14895
14896
14897
14898
14899
14900
14901
14902
14903
14904
14905
14906
14907
14908
14909
14910
14911
14912
14913
14914
14915
14916
14917
14918
14919
14920
14921
14922
14923
14924
14925
14926
14927
14928
14929
14930
14931
14932
14933
14934
14935
14936
14937
14938
14939
14940
14941
14942
14943
14944
14945
14946
14947
14948
14949
14950
14951
14952
14953
14954
14955
14956
14957
14958
14959
14960
14961
14962
14963
14964
14965
14966
14967
14968
14969
14970
14971
14972
14973
14974
14975
14976
14977
14978
14979
14980
14981
14982
14983
14984
14985
14986
14987
14988
14989
14990
14991
14992
14993
14994
14995
14996
14997
14998
14999
15000
15001
15002
15003
15004
15005
15006
15007
15008
15009
15010
15011
15012
15013
15014
15015
15016
15017
15018
15019
15020
15021
15022
15023
15024
15025
15026
15027
15028
15029
15030
15031
15032
15033
15034
15035
15036
15037
15038
15039
15040
15041
15042
15043
15044
15045
15046
15047
15048
15049
15050
15051
15052
15053
15054
15055
15056
15057
15058
15059
15060
15061
15062
15063
15064
15065
15066
15067
15068
15069
15070
15071
15072
15073
15074
15075
15076
15077
15078
15079
15080
15081
15082
15083
15084
15085
15086
15087
15088
15089
15090
15091
15092
15093
15094
15095
15096
15097
15098
15099
15100
15101
15102
15103
15104
15105
15106
15107
15108
15112
15113
15114
15115
15116
15117
15118
15119
15120
15121
15122
15123
15124
15125
15126
15127
15128
15129
15130
15132
15143
15144
15145
15146
15147
15148
15149
15150
15151
15152
15153
15154
15155
15156
15157
15158
15159
15160
15161
15162
15163
15164
15165
15166
15167
15168
15169
15170
15171
15172
15173
15174
15175
15176
15177
15178
15179
15180
15181
15182
15183
15184
15185
15186
15187
15188
15189
15190
15191
15192
15193
15194
15195
15196
15197
15198
15199
15200
15203
15204
15205
15206
15207
15208
15209
15210
15211
15212
15213
15214
15215
15216
15217
15218
15219
15220
15221
15222
15223
15224
15225
15226
15227
15228
15229
15230
15231
15232
15233
15234
15235
15236
15237
15238
15239
15240
15241
15242
15243
15244
15245
15246
15247
15248
15249
15250
15251
15252
15253
15254
15255
15256
15257
15258
15259
15260
15261
15262
15263
15264
15265
15266
15267
15268
15269
15270
15271
15272
15273
15274
15275
15276
15277
15278
15279
15280
15281
15282
15283
15284
15285
15286
15287
15288
15289
15290
15291
15292
15293
15294
15295
15296
15297
15298
15299
15300
15301
15302
15303
15304
15305
15306
15307
15308
15309
15310
15311
15312
15313
15314
15315
15316
15317
15318
15319
15320
15321
15322
15323
15324
15325
15326
15327
15328
15329
15330
15331
15332
15333
15334
15335
15336
15337
15338
15339
15340
15341
15342
15343
15344
15345
15346
15347
15348
15349
15350
15352
15362
11427
11428
11429
11430
11431
11432
11433
11434
11435
11436
11437
11438
11439
11440
11441
11442
11443
11445
11447
11448
11449
11450
11451
11452
11454
11455
11456
11457
11458
11459
11460
11461
11462
11463
11464
11465
11466
11467
11468
11469
11470
11471
11472
11473
11474
11476
11477
11478
11479
11480
11481
11482
11483
11484
11485
11486
11487
11488
11489
11490
11491
11493
11494
11495
11496
11497
11498
11499
11500
11501
11502
11503
11504
11505
11506
11507
11508
11509
11510
11511
11512
11513
11514
11515
11516
11517
11518
11519
11520
11521
11522
11523
11524
11525
11526
11527
11528
11529
11530
11531
11532
11533
11534
11535
11536
11537
11538
11539
11540
11541
11542
11543
11544
11545
11546
11547
11548
11549
11550
11551
11552
11553
11554
11555
11556
11557
11558
11559
11560
11561
11562
11563
11564
11565
11566
11567
11568
11569
11570
11571
11572
11573
11574
11575
11576
11577
11578
11579
11580
11581
11582
11583
11584
11585
11587
11588
11589
11590
11591
11592
11593
11595
11596
11597
11598
11599
11600
11601
11602
11603
11604
11605
11606
11607
11608
11609
11610
11611
11612
11613
11614
11615
11616
11617
11618
11619
11620
11621
11622
11623
11624
11625
11626
11627
11628
11629
11630
11631
11632
11633
11634
11635
11636
11637
11638
11639
11640
11641
11642
11643
11644
11645
11646
11647
11648
11649
11650
11651
11652
11653
11654
11656
11657
11658
11660
11661
11662
11663
11664
11665
11666
11667
11668
11669
11670
11671
11672
11673
11674
11675
11676
11677
11678
11679
11680
11681
11682
11683
11684
11685
11686
11688
11689
11690
11691
11692
11693
11694
11695
11696
11697
11698
11699
11700
11701
11702
11704
11705
11706
11707
11708
11709
11710
11711
11712
11713
11714
11715
11716
11717
11719
11720
11721
11722
11723
11724
11725
11726
11727
11728
11729
11730
11731
11732
11733
11734
11735
11736
11737
11738
11739
11740
11741
11742
11743
11744
11745
11746
11747
11748
11749
11751
11752
11753
11754
11755
11756
11757
11758
11759
11760
11761
11762
11763
11764
11765
11767
11768
11769
11771
11772
11773
11774
11775
11776
11777
11778
11779
11780
11781
11782
11783
11784
11785
11786
11787
11788
11789
11790
11791
11792
11793
11794
11795
11796
11797
11798
11799
11800
11801
11802
11803
11804
11805
11806
11807
11808
11809
11810
11811
11812
11813
11814
11815
11816
11817
11818
11819
11820
11821
11822
11823
11824
11825
11826
11827
11828
11830
11831
11832
11833
11834
11835
11836
11837
11838
11840
11841
11842
11843
11844
11845
11846
11847
11848
11849
11850
11851
11852
11853
11854
11855
11856
11857
11858
11859
11860
11861
11862
11863
11864
11865
11866
11867
11868
11870
11871
11872