# vtk DataFile Version 2.0
Unstructured Grid
ASCII
DATASET UNSTRUCTURED_GRID
POINTS 756 double
+5.11344361328125000E+05 +8.50304488281250000E+06 +1.42845581054687500E+02
+5.11463183593750000E+05 +8.46519961914062500E+06 -9.39789199829101562E+01
+5.11478825195312500E+05 +8.47347891796875000E+06 -1.21912239074707031E+02
+5.11701918945312500E+05 +8.49402632812500000E+06 -8.83545989990234375E+01
+5.11987271484375000E+05 +8.47919007421875000E+06 -2.35842163085937500E+02
+5.11994070312500000E+05 +8.45725685937500000E+06 -1.68450531005859375E+02
+5.12375699218750000E+05 +8.51197354687500000E+06 -1.14340553283691406E+02
+5.12458074218750000E+05 +8.48523214062500000E+06 -3.20623718261718750E+02
+5.12959649414062500E+05 +8.44969901855468750E+06 -2.09449432373046875E+02
+5.14764564453125000E+05 +8.52081335156250000E+06 -3.77522430419921875E+02
+5.16170387695312500E+05 +8.44642534521484375E+06 -2.95155517578125000E+03
+5.16343848632812500E+05 +8.46199640429687500E+06 -4.20971093750000000E+03
+5.17597402343750000E+05 +8.47828991406250000E+06 -5.33412841796875000E+03
+5.17933857421875000E+05 +8.45695097460937500E+06 -5.22438818359375000E+03
+5.17999291015625000E+05 +8.46837180468750000E+06 -5.68487353515625000E+03
+5.18227025390625000E+05 +8.44583723339843750E+06 -4.67214062500000000E+03
+5.18778164062500000E+05 +8.50106238281250000E+06 -6.28531445312500000E+03
+5.18827734375000000E+05 +8.52926703125000000E+06 -5.60894653320312500E+02
+5.19114507812500000E+05 +8.50801867187500000E+06 -6.19624951171875000E+03
+5.19287863281250000E+05 +8.46188194531250000E+06 -6.55150195312500000E+03
+5.19295494140625000E+05 +8.47565153515625000E+06 -1.10844628906250000E+03
+5.19388154296875000E+05 +8.46607786328125000E+06 -1.12617468261718750E+03
+5.19439638671875000E+05 +8.48522868750000000E+06 -1.17373767089843750E+03
+5.19651115234375000E+05 +8.45681350976562500E+06 -1.21642211914062500E+03
+5.19809556640625000E+05 +8.48671421093750000E+06 -7.15224609375000000E+03
+5.19875542968750000E+05 +8.49456135937500000E+06 -1.29307202148437500E+03
+5.20069744140625000E+05 +8.44582809619140625E+06 -1.37090954589843750E+03
+5.20251707031250000E+05 +8.51581169531250000E+06 -6.06719482421875000E+03
+5.20662916015625000E+05 +8.45191056152343750E+06 -7.13129638671875000E+03
+5.20698488281250000E+05 +8.50359075390625000E+06 -1.40823645019531250E+03
+5.21834113281250000E+05 +8.52226502343750000E+06 -5.78290380859375000E+03
+5.21973177734375000E+05 +8.45778470312500000E+06 -8.52284472656250000E+03
+5.22048144531250000E+05 +8.51231302343750000E+06 -1.46684143066406250E+03
+5.22606072265625000E+05 +8.48134154687500000E+06 -9.55520019531250000E+03
+5.22771550781250000E+05 +8.49548638671875000E+06 -9.60304687500000000E+03
+5.22850429687500000E+05 +8.46433978906250000E+06 -9.52889453125000000E+03
+5.22949531250000000E+05 +8.50420733593750000E+06 -9.66240136718750000E+03
+5.23452189453125000E+05 +8.47396790234375000E+06 -5.62921582031250000E+03
+5.23593396484375000E+05 +8.47372703515625000E+06 -1.03183535156250000E+04
+5.23745890625000000E+05 +8.51213750781250000E+06 -9.49183007812500000E+03
+5.24026251953125000E+05 +8.46174078125000000E+06 -6.63508056640625000E+03
+5.24102240234375000E+05 +8.52058806250000000E+06 -1.47787329101562500E+03
+5.24274345703125000E+05 +8.49830030468750000E+06 -6.14047949218750000E+03
+5.24478785156250000E+05 +8.53718167187500000E+06 -2.63472595214843750E+02
+5.24651835937500000E+05 +8.44583324902343750E+06 -1.01646953125000000E+04
+5.24666650390625000E+05 +8.51974060937500000E+06 -8.71392968750000000E+03
+5.24705654296875000E+05 +8.45161604199218750E+06 -5.83420605468750000E+03
+5.25172912109375000E+05 +8.49228734375000000E+06 -6.83625146484375000E+03
+5.25443939453125000E+05 +8.48714567578125000E+06 -1.18221669921875000E+04
+5.25619681640625000E+05 +8.52645886718750000E+06 -7.24087744140625000E+03
+5.25622804687500000E+05 +8.45278434082031250E+06 -1.11945146484375000E+04
+5.26058972656250000E+05 +8.45884315039062500E+06 -1.17884511718750000E+04
+5.26347351562500000E+05 +8.48078447656250000E+06 -1.26195419921875000E+04
+5.26372271484375000E+05 +8.47460438281250000E+06 -1.08157226562500000E+03
+5.26520791015625000E+05 +8.48081067578125000E+06 -7.94812109375000000E+03
+5.26573171875000000E+05 +8.53104823437500000E+06 -5.86808007812500000E+03
+5.26831726562500000E+05 +8.50094389843750000E+06 -1.29660214843750000E+04
+5.26867886718750000E+05 +8.44450604492187500E+06 -6.82763134765625000E+03
+5.26874724609375000E+05 +8.48435064453125000E+06 -1.52531494140625000E+03
+5.27014650390625000E+05 +8.52815642968750000E+06 -1.48745568847656250E+03
+5.27276890625000000E+05 +8.46584918359375000E+06 -9.30406738281250000E+02
+5.27487285156250000E+05 +8.50791318750000000E+06 -1.30482529296875000E+04
+5.28042080078125000E+05 +8.50588914843750000E+06 -8.09410595703125000E+03
+5.28642152343750000E+05 +8.52420636718750000E+06 -1.04198388671875000E+04
+5.29084472656250000E+05 +8.51877353906250000E+06 -5.92095214843750000E+03
+5.29108646484375000E+05 +8.49473335546875000E+06 -2.14148974609375000E+03
+5.29140556640625000E+05 +8.45834767187500000E+06 -1.12435437011718750E+03
+5.29183462890625000E+05 +8.51709493750000000E+06 -1.28533828125000000E+04
+5.30088277343750000E+05 +8.49813728906250000E+06 -9.96709082031250000E+03
+5.30445130859375000E+05 +8.48469191406250000E+06 -1.59324882812500000E+04
+5.30527695312500000E+05 +8.47528027734375000E+06 -1.57254042968750000E+04
+5.30653445312500000E+05 +8.53483619531250000E+06 -1.53722094726562500E+03
+5.30760617187500000E+05 +8.49378988671875000E+06 -1.64236132812500000E+04
+5.30857480468750000E+05 +8.44582894775390625E+06 -1.54614472656250000E+04
+5.30955371093750000E+05 +8.46581840820312500E+06 -1.58971464843750000E+04
+5.30988822265625000E+05 +8.44584894921875000E+06 -1.57714863281250000E+04
+5.31189443359375000E+05 +8.53176790625000000E+06 -8.70223925781250000E+03
+5.31275203125000000E+05 +8.47078512890625000E+06 -1.10731787109375000E+04
+5.31351585937500000E+05 +8.44585452294921875E+06 -1.61386015625000000E+04
+5.31498882812500000E+05 +8.45220653222656250E+06 -1.64745654296875000E+03
+5.31735667968750000E+05 +8.50246275781250000E+06 -1.70568046875000000E+04
+5.31739906250000000E+05 +8.45666345312500000E+06 -1.64080546875000000E+04
+5.31860501953125000E+05 +8.52665130468750000E+06 -7.47080322265625000E+03
+5.32348052734375000E+05 +8.44583764453125000E+06 -1.68300234375000000E+04
+5.32481503906250000E+05 +8.54461618750000000E+06 -1.07443649291992188E+02
+5.32871054687500000E+05 +8.53778312500000000E+06 -6.00738134765625000E+03
+5.32945531250000000E+05 +8.45584154785156250E+06 -1.17267822265625000E+04
+5.32961996093750000E+05 +8.50541356250000000E+06 -2.78328979492187500E+03
+5.32964136718750000E+05 +8.44582691601562500E+06 -1.72546191406250000E+04
+5.33397359375000000E+05 +8.48500986718750000E+06 -7.58184814453125000E+03
+5.33459441406250000E+05 +8.47518680078125000E+06 -7.21079785156250000E+03
+5.33608078125000000E+05 +8.46650246875000000E+06 -6.11028857421875000E+03
+5.33627824218750000E+05 +8.52543225781250000E+06 -1.37604951171875000E+04
+5.33929097656250000E+05 +8.51078895312500000E+06 -1.75969453125000000E+04
+5.33985187500000000E+05 +8.49081043750000000E+06 -8.08808105468750000E+03
+5.34363609375000000E+05 +8.51183247656250000E+06 -1.21375136718750000E+04
+5.34390308593750000E+05 +8.48544380078125000E+06 -1.30197167968750000E+04
+5.34513289062500000E+05 +8.49300319140625000E+06 -1.33790898437500000E+04
+5.34566218750000000E+05 +8.44566746582031250E+06 -2.49953735351562500E+03
+5.35050750000000000E+05 +8.44583093115234375E+06 -1.32443574218750000E+04
+5.35519347656250000E+05 +8.46366064453125000E+06 -1.40365126953125000E+04
+5.35558000000000000E+05 +8.54230364843750000E+06 -1.64254760742187500E+03
+5.35593296875000000E+05 +8.50279648828125000E+06 -1.39401054687500000E+04
+5.35945667968750000E+05 +8.44889314648437500E+06 -3.56881005859375000E+03
+5.36994585937500000E+05 +8.45419816601562500E+06 -3.62957495117187500E+03
+5.37137503906250000E+05 +8.53510707031250000E+06 -7.34096093750000000E+03
+5.37302722656250000E+05 +8.53841903906250000E+06 -7.89923486328125000E+03
+5.37811492187500000E+05 +8.51881809375000000E+06 -1.77916914062500000E+04
+5.37919531250000000E+05 +8.52008288281250000E+06 -1.32752441406250000E+04
+5.38057855468750000E+05 +8.51601739843750000E+06 -3.29169482421875000E+03
+5.38076062500000000E+05 +8.46087625976562500E+06 -2.96628198242187500E+03
+5.38132179687500000E+05 +8.45719633789062500E+06 -7.38326855468750000E+03
+5.38260648553070729E+05 +8.44883852345202491E+06 -5.19669257023818864E+03
+5.38415000000000000E+05 +8.49888033203125000E+06 -1.01312626953125000E+04
+5.38523923491118825E+05 +8.44891875736546330E+06 -5.34965169555918783E+03
+5.38546456983457669E+05 +8.44892977951113321E+06 -5.36386224016057531E+03
+5.38954085937500000E+05 +8.53280646875000000E+06 -1.25654648437500000E+04
+5.38977728059111629E+05 +8.44914073361216672E+06 -5.63583947137209543E+03
+5.39057625000000000E+05 +8.44893697949218750E+06 -5.71666796875000000E+03
+5.39335321171507239E+05 +8.44931564815272391E+06 -5.86135226205187882E+03
+5.39563436568465666E+05 +8.44931789536053501E+06 -6.01891743116377165E+03
+5.39604968750000000E+05 +8.47245348632812500E+06 -3.77095410156250000E+03
+5.39662027343750000E+05 +8.44905047656250000E+06 -6.38164306640625000E+03
+5.39996992187500000E+05 +8.47969582812500000E+06 -4.04972729492187500E+03
+5.40315781250000000E+05 +8.54177896875000000E+06 -6.85289794921875000E+03
+5.40446757812500000E+05 +8.45489149804687500E+06 -1.61094023437500000E+04
+5.40644253906250000E+05 +8.52153359375000000E+06 -3.75937939453125000E+03
+5.40719201908113668E+05 +8.45005190406154655E+06 -6.83081369404357520E+03
+5.40728975898857228E+05 +8.52021599171178415E+06 -3.72402561971495243E+03
+5.40736109375000000E+05 +8.48555405468750000E+06 -1.77523007812500000E+04
[...]
POINT_DATA 756
SCALARS point_index int 1
LOOKUP_TABLE default
0
1
2
3
4
5
6
7
8
9
10
11
12
13
14
15
16
17
18
19
20
21
22
23
24
25
26
27
28
29
30
31
32
33
34
35
36
37
38
39
40
41
42
43
44
45
46
47
48
49
50
51
52
53
54
55
56
57
58
59
60
61
62
63
64
65
66
67
68
69
70
71
72
73
74
75
76
77
78
79
80
81
82
83
84
85
86
87
88
89
90
91
92
93
94
95
96
97
98
99
100
101
102
103
104
105
106
107
108
109
110
111
112
113
114
115
116
117
118
119
120
121
122
123
124
125
126
127
128
129
130
131
132
133
134
135
136
137
138
139
140
141
142
143
144
145
146
147
148
149
150
151
152
153
154
155
156
157
158
159
160
161
162
163
164
165
166
167
168
169
170
171
172
173
174
175
176
177
178
179
180
181
182
183
184
185
186
187
188
189
190
191
192
193
194
195
196
197
198
199
200
201
202
203
204
205
206
207
208
209
210
211
212
213
214
215
216
217
218
219
220
221
222
223
224
225
226
227
228
229
230
231
232
233
234
235
236
237
238
239
240
241
242
243
244
245
246
247
248
249
250
251
252
253
254
255
256
257
258
259
260
261
262
263
264
265
266
267
268
269
270
271
272
273
274
275
276
277
278
279
280
281
282
283
284
285
286
287
288
289
290
291
292
293
294
295
296
297
298
299
300
301
302
303
304
305
306
307
308
309
310
311
312
313
314
315
316
317
318
319
320
321
322
323
324
325
326
327
328
329
330
331
332
333
334
335
336
337
338
339
340
341
342
343
344
345
346
347
348
349
350
351
352
353
354
355
356
357
358
359
360
361
362
363
364
365
366
367
368
369
370
371
372
373
374
375
376
377
378
379
380
381
382
383
384
385
386
387
388
389
390
391
392
393
394
395
396
397
398
399
400
401
402
403
404
405
406
407
408
409
410
411
412
413
414
415
416
417
418
419
420
421
422
423
424
425
426
427
428
429
430
431
432
433
434
435
436
437
438
439
440
441
442
443
444
445
446
447
448
449
450
451
452
453
454
455
456
457
458
459
460
461
462
463
464
465
466
467
468
469
470
471
472
473
474
475
476
477
478
479
480
481
482
483
484
485
486
487
488
489
490
491
492
493
494
495
496
497
498
499
500
501
502
503
504
505
506
507
508
509
510
511
512
513
514
515
516
517
518
519
520
521
522
523
524
525
526
527
528
529
530
531
532
533
534
535
536
537
538
539
540
541
542
543
544
545
546
547
548
549
550
551
552
553
554
555
556
557
558
559
560
561
562
563
564
565
566
567
568
569
570
571
572
573
574
575
576
577
578
579
580
581
582
583
584
585
586
587
588
589
590
591
592
593
594
595
596
597
598
599
600
601
602
603
604
605
606
607
608
609
610
611
612
613
614
615
616
617
618
619
620
621
622
623
624
625
626
627
628
629
630
631
632
633
634
635
636
637
638
639
640
641
642
643
644
645
646
647
648
649
650
651
652
653
654
655
656
657
658
659
660
661
662
663
664
665
666
667
668
669
670
671
672
673
674
675
676
677
678
679
680
681
682
683
684
685
686
687
688
689
690
691
692
693
694
695
696
697
698
699
700
701
702
703
704
705
706
707
708
709
710
711
712
713
714
715
716
717
718
719
720
721
722
723
724
725
726
727
728
729
730
731
732
733
734
735
736
737
738
739
740
741
742
743
744
745
746
747
748
749
750
751
752
753
754
755

CELL_DATA 1578
SCALARS orig_triangle_id int 1
LOOKUP_TABLE default
1136
1137
1138
1139
1142
1143
1144
1145
1146
1147
1148
1149
1151
1152
1153
1155
1156
1158
1160
1163
1164
1165
1166
1167
1169
1170
1171
1172
1173
1174
1175
1176
1177
1178
1179
1180
1181
1182
1183
1184
1185
1186
1187
1189
1190
1192
1193
1195
1196
1198
1199
1200
939
940
942
943
944
945
946
947
948
949
950
951
953
955
958
959
962
963
964
965
966
967
969
971
972
975
976
977
978
979
980
982
983
984
985
986
988
989
991
992
993
994
995
996
997
1000
1001
1003
1004
1005
1006
1007
1008
1009
1010
1011
1013
1014
1015
1018
1019
1020
1022
1023
1024
1025
1026
1028
1029
1031
1033
1034
1035
1036
1037
1038
1039
1040
1041
1042
1043
1044
1045
1046
1047
1048
1049
1050
1053
1054
1057
1058
1060
1061
1062
1063
830
832
833
834
835
836
837
838
839
841
842
843
844
845
846
847
849
851
852
853
856
857
858
859
860
861
862
864
865
867
868
869
870
871
872
874
875
876
877
878
879
880
881
883
886
887
888
889
890
891
892
893
506
507
508
510
511
513
514
515
518
519
520
524
525
527
528
531
532
533
535
538
540
541
544
546
547
550
551
552
553
554
557
558
559
560
563
564
567
568
571
572
573
576
577
578
580
582
584
586
589
590
591
592
593
594
602
604
606
607
609
610
612
613
614
615
616
618
620
622
623
625
627
628
629
630
632
633
635
636
637
639
642
643
644
645
646
648
649
327
328
329
330
331
332
333
334
335
336
337
340
341
342
343
344
345
347
348
349
351
353
354
355
356
357
358
359
360
361
362
364
365
366
367
370
372
373
375
376
377
378
379
380
381
382
383
384
385
386
387
388
390
391
392
393
394
395
396
397
398
399
400
401
402
403
405
406
407
408
409
410
411
413
414
415
416
417
418
421
422
423
424
425
426
427
428
429
430
432
433
434
435
436
437
438
439
440
441
442
443
193
194
195
196
197
198
199
200
201
202
203
204
205
206
207
208
209
210
211
212
214
215
217
218
219
220
221
222
223
224
225
226
227
228
229
230
231
232
233
234
235
236
237
238
239
240
241
242
243
244
245
246
247
248
249
250
251
252
253
254
255
256
257
258
259
260
261
263
264
265
266
0
1
2
3
4
5
6
7
8
9
10
11
12
13
14
15
16
17
18
19
20
21
22
23
24
25
26
27
28
29
30
31
32
33
34
35
36
37
38
39
40
42
43
44
45
46
47
48
49
50
51
52
54
55
56
57
58
60
61
62
63
64
65
66
67
68
69
70
71
72
73
74
75
76
77
78
79
80
81
82
83
84
85
86
87
88
89
90
91
92
93
94
95
97
98
99
100
101
102
103
104
105
106
107
108
109
110
111
112
113
114
1140
1140
1140
1141
1141
1141
1141
1141
1150
1150
1150
1154
1154
1154
1157
1157
1157
1159
1159
1159
1161
1161
1161
1161
1161
1161
1161
1162
1162
1162
1168
1168
1168
1168
1168
1168
1168
1168
1168
1188
1188
1188
1191
1191
1191
1194
1194
1194
1197
1197
1197
1197
1197
1201
1201
1201
1202
1202
1202
1202
1202
1202
1202
1202
1203
1203
1203
1258
1259
1260
1260
1260
1261
1261
1261
1262
1262
1263
1264
1264
1264
1264
1265
1265
1266
1268
1268
1269
1276
1276
1277
1278
1278
1278
1279
1280
1280
1281
1282
1282
1283
1284
1284
1285
1286
1287
938
938
938
938
938
941
941
941
941
941
941
941
941
941
941
941
941
941
941
941
941
941
941
941
952
952
952
954
954
954
956
956
956
957
957
957
960
960
960
960
960
960
960
960
961
961
961
961
961
968
968
968
968
968
970
970
970
973
973
973
973
973
974
974
974
981
981
981
987
987
987
987
987
987
987
987
987
987
987
987
987
987
987
987
987
987
987
987
987
990
990
990
998
998
998
999
999
999
1002
1002
1002
1012
1012
1012
1012
1012
1012
1012
1012
1012
1016
1016
1016
1016
1016
1016
1016
1016
1016
1016
1016
1016
1016
1017
1017
1017
1017
1017
1017
1017
1017
1017
1021
1021
1021
1027
1027
1027
1027
1027
1027
1027
1027
1027
1027
1027
1027
1027
1027
1027
1027
1030
1030
1030
1032
1032
1032
1032
1032
1032
1032
1051
1051
1051
1051
1051
1052
1052
1052
1052
1052
1052
1052
1052
1052
1052
1052
1052
1052
1052
1055
1055
1055
1055
1055
1055
1056
1056
1056
1059
1059
1059
1059
1070
1071
1110
1113
1126
1126
1126
1127
1127
1127
1128
1128
1128
1129
1129
1129
1132
1132
1133
831
831
831
831
831
831
831
840
840
840
840
840
840
840
840
840
840
840
840
840
840
840
840
840
840
840
848
848
848
850
850
850
850
850
850
850
850
850
850
850
850
854
854
854
854
854
855
855
855
855
855
855
855
855
855
855
855
863
863
863
863
863
863
863
863
863
863
863
863
863
863
863
866
866
866
866
866
866
866
866
866
866
873
873
873
882
882
882
882
882
882
882
882
882
882
882
882
882
882
882
884
884
884
884
884
884
884
884
884
884
884
884
884
884
884
884
884
885
885
885
920
920
921
921
922
922
922
924
924
924
926
927
509
509
509
509
509
512
512
512
516
516
516
516
516
517
517
517
521
521
521
521
521
521
521
521
522
522
522
523
523
523
526
526
526
526
526
529
529
529
530
530
530
530
530
534
534
534
536
536
536
537
537
537
537
537
539
539
539
539
539
542
542
542
542
542
543
543
543
543
543
545
545
545
545
545
545
545
548
548
548
549
549
549
549
549
555
555
555
555
555
556
556
556
556
556
556
556
556
556
561
561
561
562
562
562
565
565
565
565
565
566
566
566
569
569
569
570
570
570
574
574
574
574
574
574
574
575
575
575
579
579
579
579
579
581
581
581
583
583
583
585
585
585
587
587
587
588
588
588
595
595
595
596
596
596
597
597
597
598
598
598
599
599
599
600
600
600
600
600
600
600
600
600
601
601
601
603
603
603
605
605
605
605
605
608
608
608
611
611
611
617
617
617
619
619
619
619
619
621
621
621
624
624
624
626
626
626
631
631
631
634
634
634
638
638
638
638
638
640
640
640
641
641
641
647
647
647
650
651
652
656
656
658
658
659
660
661
666
666
690
691
692
692
693
694
695
696
704
706
707
707
710
712
713
714
716
717
718
719
738
738
744
772
772
773
778
778
796
796
820
820
824
824
826
828
338
338
338
338
338
338
338
338
338
338
338
338
338
338
339
339
339
339
339
339
339
339
339
339
339
339
339
339
339
339
339
339
339
339
339
339
339
339
339
339
339
339
339
339
339
339
339
339
339
339
339
339
339
339
339
346
346
346
346
346
346
346
346
346
346
346
346
346
346
350
350
350
350
350
350
350
350
350
350
350
350
350
350
350
350
350
350
350
350
350
350
350
350
352
352
352
352
352
352
352
352
352
352
352
352
363
363
363
363
363
363
363
363
363
363
363
363
363
363
363
363
363
363
363
363
363
363
363
363
363
363
368
368
368
368
368
368
368
368
368
369
369
369
369
369
369
369
369
369
369
369
369
369
369
371
371
371
371
371
371
371
371
371
371
374
374
374
374
374
374
374
374
374
374
389
389
389
389
389
389
389
389
389
389
389
389
404
404
404
404
404
404
404
404
404
404
412
412
412
412
412
412
412
412
412
419
419
419
419
419
420
420
420
420
420
420
420
420
420
420
420
420
420
420
420
431
431
431
431
431
431
431
431
431
431
431
431
431
431
431
431
431
213
213
213
216
216
216
216
216
262
262
262
305
305
305
307
307
41
41
41
41
41
53
53
53
53
59
59
59
59
59
59
96
96
96
96
96
96
96
96
96
96
96

SCALARS patch_id int 1
LOOKUP_TABLE default
0
0
0
0
0
0
0
0
0
0
0
0
0
0
0
0
0
0
0
0
0
0
0
0
0
0
0
0
0
0
0
0
0
0
0
0
0
0
0
0
0
0
0
0
0
0
0
0
0
0
0
0
1
1
1
1
1
1
1
1
1
1
1
1
1
1
1
1
1
1
1
1
1
1
1
1
1
1
1
1
1
1
1
1
1
1
1
1
1
1
1
1
1
1
1
1
1
1
1
1
1
1
1
1
1
1
1
1
1
1
1
1
1
1
1
1
1
1
1
1
1
1
1
1
1
1
1
1
1
1
1
1
1
1
1
1
1
1
1
1
1
1
1
1
1
1
1
1
2
2
2
2
2
2
2
2
2
2
2
2
2
2
2
2
2
2
2
2
2
2
2
2
2
2
2
2
2
2
2
2
2
2
2
2
2
2
2
2
2
2
2
2
2
2
2
2
2
2
2
2
3
3
3
3
4
3
3
3
3
3
3
3
3
3
3
3
3
3
3
3
3
3
3
3
3
3
3
3
3
3
3
3
3
3
3
3
3
3
3
3
3
3
3
3
3
3
3
3
3
3
3
3
3
3
3
3
3
3
3
3
3
3
3
3
3
3
3
3
3
3
3
3
3
3
3
3
3
3
3
3
3
3
3
3
3
3
3
5
5
5
5
5
5
5
5
5
5
5
5
5
5
5
5
5
5
5
5
5
5
5
5
5
5
5
5
5
5
5
5
5
5
5
5
5
5
5
5
5
5
5
5
5
5
5
5
5
5
5
5
5
5
5
5
5
5
5
5
5
5
5
5
5
5
5
5
5
5
5
5
5
5
5
5
5
5
5
5
5
5
5
5
5
5
5
5
5
5
5
5
5
5
5
5
5
5
5
5
5
6
6
6
6
6
6
6
6
6
6
6
6
6
6
6
6
6
6
6
6
6
6
6
6
6
6
6
6
6
6
6
6
6
6
6
6
6
6
6
6
6
6
6
6
6
6
6
6
6
6
6
6
6
6
6
6
6
6
6
6
6
6
6
6
6
6
6
6
6
6
6
7
7
7
7
7
7
7
7
7
7
7
7
7
7
7
7
7
7
7
7
7
7
7
7
7
7
7
7
7
7
7
7
7
7
7
7
7
7
7
7
7
7
7
7
7
7
7
7
7
7
7
7
7
7
7
7
7
7
7
7
7
7
7
7
7
7
7
7
7
7
7
7
7
7
7
7
7
7
7
7
7
7
7
7
7
7
7
7
7
7
7
7
7
7
7
7
7
7
7
7
7
7
7
7
7
7
7
7
7
7
7
8
0
0
0
0
0
9
9
8
0
0
0
0
10
0
0
10
0
0
0
10
0
0
0
0
8
8
0
0
10
0
0
0
0
0
0
0
0
0
0
0
0
0
0
9
8
0
0
0
0
0
0
0
0
0
0
0
0
0
0
0
0
0
0
0
0
0
0
0
10
0
0
10
0
0
8
0
8
0
0
0
11
11
11
0
9
0
12
0
0
13
0
0
0
0
0
0
0
0
0
0
0
0
0
0
0
14
14
14
1
1
1
1
1
1
1
1
1
1
1
1
1
1
1
1
1
1
1
1
1
1
1
14
14
14
1
1
1
14
1
1
1
1
1
1
1
1
1
1
1
15
1
1
1
16
1
1
1
1
1
14
14
1
14
14
14
1
1
1
1
14
16
1
1
1
1
1
1
1
1
1
1
1
1
1
1
1
1
1
1
1
1
1
1
1
14
14
1
14
14
1
1
1
16
1
16
16
1
1
1
1
1
1
1
1
1
1
1
1
1
1
1
1
1
1
1
1
1
1
1
1
1
1
1
1
1
1
1
1
1
1
1
1
1
1
1
1
1
1
1
1
1
1
1
1
1
1
1
1
14
14
14
14
14
1
1
1
14
1
1
1
15
1
1
1
1
1
1
1
1
1
1
1
1
1
1
1
1
1
1
1
1
1
1
15
1
1
1
1
1
1
14
14
14
1
1
14
1
1
15
1
1
15
1
1
16
1
16
2
2
2
2
2
2
2
2
2
2
2
2
2
2
2
2
2
2
2
2
2
2
2
2
2
2
17
2
2
2
2
2
2
2
2
2
2
2
2
2
2
17
2
2
2
18
19
19
2
2
2
2
2
2
17
17
17
2
2
2
2
2
2
2
2
2
2
2
2
2
2
2
2
2
2
2
2
2
2
2
2
2
2
2
2
18
18
18
18
18
18
18
2
2
2
2
2
2
2
2
2
2
2
2
2
2
2
2
2
2
2
2
2
2
2
2
2
18
2
2
18
2
3
2
18
17
2
17
19
2
19
19
3
3
3
20
21
3
22
22
3
3
3
23
23
3
3
24
3
3
3
3
3
3
3
3
23
3
3
3
24
24
3
3
3
25
25
4
4
3
3
3
3
22
22
3
3
26
3
3
3
25
3
3
3
22
3
3
3
3
22
3
3
26
26
26
4
4
4
3
3
3
3
3
3
3
3
3
3
4
4
3
3
3
3
3
3
3
4
4
4
3
3
3
3
3
3
3
3
3
4
4
3
3
3
23
3
3
3
3
3
3
26
26
3
3
4
3
3
27
25
3
3
3
3
22
22
3
3
28
3
3
24
24
24
3
3
26
23
23
3
3
3
29
4
4
3
3
3
20
3
3
28
3
3
21
4
3
3
23
23
3
22
22
3
3
3
3
3
3
3
3
3
3
3
25
25
3
3
3
3
3
3
3
22
3
3
24
3
4
4
4
4
3
4
4
4
3
3
3
3
3
3
3
25
4
3
3
3
3
4
3
3
26
22
3
3
3
30
4
4
3
27
3
3
3
3
27
3
3
3
3
3
3
3
3
3
3
24
3
3
3
3
3
3
3
3
3
3
3
3
3
3
3
3
3
3
3
29
29
3
26
3
23
3
3
3
23
4
3
4
3
3
21
3
3
5
5
5
5
5
5
5
5
5
5
5
5
5
5
5
5
5
5
5
5
5
5
5
5
5
5
5
5
5
5
5
5
5
5
5
5
5
5
5
5
5
5
5
5
5
5
5
5
5
5
5
5
5
5
5
5
5
5
5
5
5
5
5
5
5
5
5
5
5
5
5
5
5
5
5
5
5
5
5
5
5
5
5
5
5
5
5
5
5
5
5
5
5
5
5
5
5
5
5
5
5
5
5
5
5
5
5
5
5
5
5
5
5
5
5
5
5
5
5
5
5
5
5
5
5
5
5
5
5
5
5
5
5
5
5
5
5
5
5
5
5
5
5
5
5
5
5
5
5
5
5
5
5
5
5
5
5
5
5
5
5
5
5
5
5
5
5
5
5
5
5
5
5
5
5
5
5
5
5
5
5
5
5
5
5
5
5
5
5
5
5
5
5
5
5
5
5
5
5
5
5
5
5
5
5
5
5
5
5
5
5
5
5
5
5
5
5
5
5
5
5
5
5
5
5
5
5
5
5
5
5
5
5
5
5
5
5
5
5
5
5
5
6
6
31
6
6
6
31
31
6
6
31
6
6
31
31
6
7
7
7
7
7
7
7
7
7
7
7
7
7
7
7
7
7
7
7
7
7
7
7
7
7
7

