# vtk DataFile Version 2.0
Unstructured Grid
ASCII
DATASET UNSTRUCTURED_GRID
POINTS 53 double
+5.19651115234375000E+05 +8.45681350976562500E+06 -1.21642211914062500E+03
+5.19875542968750000E+05 +8.49456135937500000E+06 -1.29307202148437500E+03
+5.20698488281250000E+05 +8.50359075390625000E+06 -1.40823645019531250E+03
+5.19439638671875000E+05 +8.48522868750000000E+06 -1.17373767089843750E+03
+5.19388154296875000E+05 +8.46607786328125000E+06 -1.12617468261718750E+03
+5.19295494140625000E+05 +8.47565153515625000E+06 -1.10844628906250000E+03
+5.20069744140625000E+05 +8.44582809619140625E+06 -1.37090954589843750E+03
+5.22048144531250000E+05 +8.51231302343750000E+06 -1.46684143066406250E+03
+5.24102240234375000E+05 +8.52058806250000000E+06 -1.47787329101562500E+03
+5.27014650390625000E+05 +8.52815642968750000E+06 -1.48745568847656250E+03
+5.26867886718750000E+05 +8.44450604492187500E+06 -6.82763134765625000E+03
+5.30653445312500000E+05 +8.53483619531250000E+06 -1.53722094726562500E+03
+5.35558000000000000E+05 +8.54230364843750000E+06 -1.64254760742187500E+03
+5.35050750000000000E+05 +8.44583093115234375E+06 -1.32443574218750000E+04
+5.40315781250000000E+05 +8.54177896875000000E+06 -6.85289794921875000E+03
+5.40736109375000000E+05 +8.48555405468750000E+06 -1.77523007812500000E+04
+5.41534375000000000E+05 +8.47560705078125000E+06 -1.75972207031250000E+04
+5.41282367187500000E+05 +8.49417806640625000E+06 -1.83057128906250000E+04
+5.45716804687500000E+05 +8.53759861718750000E+06 -1.23598085937500000E+04
+5.42984316406250000E+05 +8.44535242968750000E+06 -1.72375390625000000E+04
+5.43579746093750000E+05 +8.46557896875000000E+06 -1.78813378906250000E+04
+5.42914746093750000E+05 +8.50222117578125000E+06 -1.93923613281250000E+04
+5.46406000000000000E+05 +8.45676064062500000E+06 -1.92485156250000000E+04
+5.45787296875000000E+05 +8.51037077343750000E+06 -2.04727812500000000E+04
+5.49516652343750000E+05 +8.53349000781250000E+06 -1.63154365234375000E+04
+5.48015824218750000E+05 +8.44583552832031250E+06 -1.97806230468750000E+04
+5.48492726562500000E+05 +8.44991256933593750E+06 -2.02117558593750000E+04
+5.48838199218750000E+05 +8.51807792187500000E+06 -2.11837792968750000E+04
+5.51523484375000000E+05 +8.52993008593750000E+06 -1.95613613281250000E+04
+5.51078628906250000E+05 +8.52478405468750000E+06 -2.10428437500000000E+04
+5.32945531250000000E+05 +8.45584154785156250E+06 -1.17267822265625000E+04
+5.42854343750000000E+05 +8.52909811718750000E+06 -1.36813095703125000E+04
+5.31275203125000000E+05 +8.47078512890625000E+06 -1.10731787109375000E+04
+5.37919531250000000E+05 +8.52008288281250000E+06 -1.32752441406250000E+04
+5.26520791015625000E+05 +8.48081067578125000E+06 -7.94812109375000000E+03
+5.34363609375000000E+05 +8.51183247656250000E+06 -1.21375136718750000E+04
+5.30088277343750000E+05 +8.49813728906250000E+06 -9.96709082031250000E+03
+5.25172912109375000E+05 +8.49228734375000000E+06 -6.83625146484375000E+03
+5.24705654296875000E+05 +8.45161604199218750E+06 -5.83420605468750000E+03
+5.40446757812500000E+05 +8.45489149804687500E+06 -1.61094023437500000E+04
+5.28042080078125000E+05 +8.50588914843750000E+06 -8.09410595703125000E+03
+5.24026251953125000E+05 +8.46174078125000000E+06 -6.63508056640625000E+03
+5.34390308593750000E+05 +8.48544380078125000E+06 -1.30197167968750000E+04
+5.34513289062500000E+05 +8.49300319140625000E+06 -1.33790898437500000E+04
+5.35593296875000000E+05 +8.50279648828125000E+06 -1.39401054687500000E+04
+5.35519347656250000E+05 +8.46366064453125000E+06 -1.40365126953125000E+04
+5.37137503906250000E+05 +8.53510707031250000E+06 -7.34096093750000000E+03
+5.31860501953125000E+05 +8.52665130468750000E+06 -7.47080322265625000E+03
+5.23452189453125000E+05 +8.47396790234375000E+06 -5.62921582031250000E+03
+5.45076636718750000E+05 +8.52243425000000000E+06 -1.77198925781250000E+04
+5.29084472656250000E+05 +8.51877353906250000E+06 -5.92095214843750000E+03
+5.24274345703125000E+05 +8.49830030468750000E+06 -6.14047949218750000E+03
+5.41018718750000000E+05 +8.51280297656250000E+06 -1.70176191406250000E+04

CELLS 74 296
3  48 34 32
3  43 15 42
3  50 40 7
3  50 33 35
3  48 32 41
3  50 9 47
3  52 21 44
3  39 26 19
3  48 41 4
3  40 2 7
3  44 17 43
3  43 42 37
3  46 11 12
3  31 24 28
3  45 41 32
3  52 44 35
3  51 37 1
3  41 30 38
3  43 17 15
3  51 1 2
3  31 18 24
3  38 30 13
3  50 47 33
3  46 14 18
3  49 28 29
3  46 9 11
3  41 0 4
3  39 13 30
3  49 33 31
3  52 35 33
3  45 32 16
3  47 46 31
3  38 6 0
3  52 49 27
3  52 27 23
3  26 25 19
3  52 33 49
3  34 16 32
3  48 3 34
3  51 2 40
3  41 38 0
3  46 12 14
3  50 7 8
3  45 16 20
3  38 13 10
3  50 35 40
3  38 10 6
3  45 39 30
3  37 34 3
3  45 30 41
3  42 34 37
3  37 3 1
3  50 8 9
3  52 23 21
3  39 19 13
3  47 9 46
3  51 36 37
3  42 15 16
3  51 40 36
3  48 5 3
3  48 4 5
3  39 22 26
3  44 40 35
3  49 31 28
3  47 31 33
3  44 21 17
3  49 29 27
3  44 43 36
3  45 20 39
3  46 18 31
3  42 16 34
3  39 20 22
3  43 37 36
3  44 36 40

CELL_TYPES 74
5
5
5
5
5
5
5
5
5
5
5
5
5
5
5
5
5
5
5
5
5
5
5
5
5
5
5
5
5
5
5
5
5
5
5
5
5
5
5
5
5
5
5
5
5
5
5
5
5
5
5
5
5
5
5
5
5
5
5
5
5
5
5
5
5
5
5
5
5
5
5
5
5
5

CELL_DATA 74
SCALARS surface_id int 1
LOOKUP_TABLE default
6
6
6
6
6
6
6
6
6
6
6
6
6
6
6
6
6
6
6
6
6
6
6
6
6
6
6
6
6
6
6
6
6
6
6
6
6
6
6
6
6
6
6
6
6
6
6
6
6
6
6
6
6
6
6
6
6
6
6
6
6
6
6
6
6
6
6
6
6
6
6
6
6
6

