# vtk DataFile Version 2.0
Unstructured Grid
ASCII
DATASET UNSTRUCTURED_GRID
POINTS 44 double
+5.70461757812500000E+05 +8.49074944921875000E+06 -1.65747207031250000E+04
+5.66908000000000000E+05 +8.49480940625000000E+06 -1.45085332031250000E+04
+5.73913171875000000E+05 +8.49613891406250000E+06 -1.72160664062500000E+04
+5.64810378906250000E+05 +8.50386475000000000E+06 -1.10164160156250000E+04
+5.78709335937500000E+05 +8.48768235156250000E+06 -1.83852109375000000E+04
+5.63459011718750000E+05 +8.49005058984375000E+06 -1.53857324218750000E+04
+5.60605417968750000E+05 +8.49562864062500000E+06 -1.14132675781250000E+04
+5.70523132812500000E+05 +8.48680062890625000E+06 -1.75970878906250000E+04
+5.63568484375000000E+05 +8.48597779296875000E+06 -1.83356699218750000E+04
+5.55881316406250000E+05 +8.48530749218750000E+06 -1.50686191406250000E+04
+5.56113839843750000E+05 +8.49088450390625000E+06 -1.11790195312500000E+04
+5.48059234375000000E+05 +8.48554717968750000E+06 -1.09943515625000000E+04
+5.51516519531250000E+05 +8.49297878125000000E+06 -6.19365722656250000E+03
+5.55711687500000000E+05 +8.50009760156250000E+06 -6.51677734375000000E+03
+5.59575273437500000E+05 +8.50953664062500000E+06 -7.12977832031250000E+03
+5.65768648437500000E+05 +8.51203817187500000E+06 -1.06557246093750000E+04
+5.60221003906250000E+05 +8.51529129687500000E+06 -7.05541650390625000E+03
+5.74017382812500000E+05 +8.50752386718750000E+06 -1.66250117187500000E+04
+5.70831828125000000E+05 +8.51647053906250000E+06 -1.43569492187500000E+04
+5.79320148437500000E+05 +8.51706527343750000E+06 -1.73142597656250000E+04
+5.63603132812500000E+05 +8.52314133593750000E+06 -7.94902783203125000E+03
+5.72649257812500000E+05 +8.52285882812500000E+06 -1.37631406250000000E+04
+5.69716164062500000E+05 +8.52984320312500000E+06 -7.30857080078125000E+03
+5.80145710937500000E+05 +8.52836654687500000E+06 -1.35032343750000000E+04
+5.88250210937500000E+05 +8.52234850781250000E+06 -1.71602207031250000E+04
+5.81943257812500000E+05 +8.53553617187500000E+06 -7.90909277343750000E+03
+5.77846867187500000E+05 +8.53715619531250000E+06 -6.22167968750000000E+03
+5.89609265625000000E+05 +8.53042805468750000E+06 -1.28503808593750000E+04
+5.91524562500000000E+05 +8.53834104687500000E+06 -7.70860644531250000E+03
+5.97642460937500000E+05 +8.53553540625000000E+06 -1.34770136718750000E+04
+5.87508507812500000E+05 +8.54049349218750000E+06 -4.00129956054687500E+03
+5.96498648437500000E+05 +8.52712035156250000E+06 -1.93135937500000000E+04
+6.02675015625000000E+05 +8.53231153906250000E+06 -1.92645332031250000E+04
+5.94091890625000000E+05 +8.51888595312500000E+06 -2.02297812500000000E+04
+6.01406671875000000E+05 +8.51936512500000000E+06 -2.29702441406250000E+04
+5.88478710937500000E+05 +8.51364074218750000E+06 -1.98744511718750000E+04
+5.96576804687500000E+05 +8.51068001562500000E+06 -2.30884257812500000E+04
+5.91106187500000000E+05 +8.50240324609375000E+06 -2.31476171875000000E+04
+5.82538804687500000E+05 +8.50833578906250000E+06 -1.95992109375000000E+04
+5.81332500000000000E+05 +8.50019882031250000E+06 -2.03134609375000000E+04
+5.79568375000000000E+05 +8.49236026171875000E+06 -1.92013535156250000E+04
+5.86744265625000000E+05 +8.49534402343750000E+06 -2.27455820312500000E+04
+6.04053890625000000E+05 +8.52746525000000000E+06 -2.24409824218750000E+04
+5.41094007812500000E+05 +8.48732150781250000E+06 -5.06887207031250000E+03

CELLS 64 256
3  15 16 20
3  3 2 1
3  39 37 41
3  25 28 27
3  15 17 3
3  39 17 38
3  40 41 4
3  21 23 19
3  0 2 4
3  35 37 38
3  39 38 37
3  5 7 8
3  15 18 17
3  2 40 4
3  33 36 35
3  6 12 13
3  38 17 19
3  27 28 29
3  10 11 12
3  33 34 36
3  3 17 2
3  0 4 7
3  0 1 2
3  6 1 5
3  10 9 11
3  12 11 43
3  35 36 37
3  18 19 17
3  6 10 12
3  21 20 22
3  21 19 18
3  31 24 27
3  35 38 19
3  6 13 3
3  31 29 32
3  0 5 1
3  3 13 14
3  31 32 42
3  33 24 31
3  15 20 18
3  21 22 23
3  25 30 28
3  25 27 23
3  6 3 1
3  25 26 30
3  33 35 24
3  31 27 29
3  33 31 34
3  15 3 14
3  6 5 10
3  39 40 2
3  31 42 34
3  5 8 9
3  23 24 19
3  39 2 17
3  5 9 10
3  35 19 24
3  39 41 40
3  0 7 5
3  15 14 16
3  25 23 22
3  21 18 20
3  25 22 26
3  23 27 24

CELL_TYPES 64
5
5
5
5
5
5
5
5
5
5
5
5
5
5
5
5
5
5
5
5
5
5
5
5
5
5
5
5
5
5
5
5
5
5
5
5
5
5
5
5
5
5
5
5
5
5
5
5
5
5
5
5
5
5
5
5
5
5
5
5
5
5
5
5

CELL_DATA 64
SCALARS surface_id int 1
LOOKUP_TABLE default
9
9
9
9
9
9
9
9
9
9
9
9
9
9
9
9
9
9
9
9
9
9
9
9
9
9
9
9
9
9
9
9
9
9
9
9
9
9
9
9
9
9
9
9
9
9
9
9
9
9
9
9
9
9
9
9
9
9
9
9
9
9
9
9

