# vtk DataFile Version 2.0
Unstructured Grid
ASCII
DATASET UNSTRUCTURED_GRID
POINTS 78 double
+5.11463183593750000E+05 +8.46519961914062500E+06 -9.39789199829101562E+01
+5.11478825195312500E+05 +8.47347891796875000E+06 -1.21912239074707031E+02
+5.11344361328125000E+05 +8.50304488281250000E+06 +1.42845581054687500E+02
+5.11994070312500000E+05 +8.45725685937500000E+06 -1.68450531005859375E+02
+5.12375699218750000E+05 +8.51197354687500000E+06 -1.14340553283691406E+02
+5.11701918945312500E+05 +8.49402632812500000E+06 -8.83545989990234375E+01
+5.11987271484375000E+05 +8.47919007421875000E+06 -2.35842163085937500E+02
+5.12959649414062500E+05 +8.44969901855468750E+06 -2.09449432373046875E+02
+5.12458074218750000E+05 +8.48523214062500000E+06 -3.20623718261718750E+02
+5.14764564453125000E+05 +8.52081335156250000E+06 -3.77522430419921875E+02
+5.16170387695312500E+05 +8.44642534521484375E+06 -2.95155517578125000E+03
+5.18227025390625000E+05 +8.44583723339843750E+06 -4.67214062500000000E+03
+5.18827734375000000E+05 +8.52926703125000000E+06 -5.60894653320312500E+02
+5.24651835937500000E+05 +8.44583324902343750E+06 -1.01646953125000000E+04
+5.24478785156250000E+05 +8.53718167187500000E+06 -2.63472595214843750E+02
+5.30955371093750000E+05 +8.46581840820312500E+06 -1.58971464843750000E+04
+5.30527695312500000E+05 +8.47528027734375000E+06 -1.57254042968750000E+04
+5.32481503906250000E+05 +8.54461618750000000E+06 -1.07443649291992188E+02
+5.30857480468750000E+05 +8.44582894775390625E+06 -1.54614472656250000E+04
+5.30988822265625000E+05 +8.44584894921875000E+06 -1.57714863281250000E+04
+5.31351585937500000E+05 +8.44585452294921875E+06 -1.61386015625000000E+04
+5.30445130859375000E+05 +8.48469191406250000E+06 -1.59324882812500000E+04
+5.31739906250000000E+05 +8.45666345312500000E+06 -1.64080546875000000E+04
+5.30760617187500000E+05 +8.49378988671875000E+06 -1.64236132812500000E+04
+5.31735667968750000E+05 +8.50246275781250000E+06 -1.70568046875000000E+04
+5.32348052734375000E+05 +8.44583764453125000E+06 -1.68300234375000000E+04
+5.32964136718750000E+05 +8.44582691601562500E+06 -1.72546191406250000E+04
+5.33929097656250000E+05 +8.51078895312500000E+06 -1.75969453125000000E+04
+5.37811492187500000E+05 +8.51881809375000000E+06 -1.77916914062500000E+04
+5.41170824218750000E+05 +8.55179656250000000E+06 +5.47657836914062500E+02
+5.45265160156250000E+05 +8.55462488281250000E+06 +3.40558959960937500E+02
+5.43208546875000000E+05 +8.52640963281250000E+06 -1.74975703125000000E+04
+5.48777843750000000E+05 +8.55498510156250000E+06 -1.41141015625000000E+03
+5.53689035156250000E+05 +8.55310228125000000E+06 -5.68664501953125000E+03
+5.49310855468750000E+05 +8.53329411718750000E+06 -1.67868750000000000E+04
+5.55052789062500000E+05 +8.53919162500000000E+06 -1.58645839843750000E+04
+5.59725667968750000E+05 +8.55078342187500000E+06 -1.10007382812500000E+04
+5.59560699218750000E+05 +8.54397320312500000E+06 -1.49891083984375000E+04
+5.64150097656250000E+05 +8.54908512500000000E+06 -1.40035292968750000E+04
+5.25619681640625000E+05 +8.52645886718750000E+06 -7.24087744140625000E+03
+5.24666650390625000E+05 +8.51974060937500000E+06 -8.71392968750000000E+03
+5.23745890625000000E+05 +8.51213750781250000E+06 -9.49183007812500000E+03
+5.31189443359375000E+05 +8.53176790625000000E+06 -8.70223925781250000E+03
+5.22949531250000000E+05 +8.50420733593750000E+06 -9.66240136718750000E+03
+5.22771550781250000E+05 +8.49548638671875000E+06 -9.60304687500000000E+03
+5.48162316406250000E+05 +8.54693461718750000E+06 -6.90344384765625000E+03
+5.21973177734375000E+05 +8.45778470312500000E+06 -8.52284472656250000E+03
+5.23593396484375000E+05 +8.47372703515625000E+06 -1.03183535156250000E+04
+5.22606072265625000E+05 +8.48134154687500000E+06 -9.55520019531250000E+03
+5.19287863281250000E+05 +8.46188194531250000E+06 -6.55150195312500000E+03
+5.44238140625000000E+05 +8.53981795312500000E+06 -1.00794726562500000E+04
+5.33627824218750000E+05 +8.52543225781250000E+06 -1.37604951171875000E+04
+5.17999291015625000E+05 +8.46837180468750000E+06 -5.68487353515625000E+03
+5.19809556640625000E+05 +8.48671421093750000E+06 -7.15224609375000000E+03
+5.37302722656250000E+05 +8.53841903906250000E+06 -7.89923486328125000E+03
+5.17597402343750000E+05 +8.47828991406250000E+06 -5.33412841796875000E+03
+5.55139917968750000E+05 +8.54612559375000000E+06 -1.05980615234375000E+04
+5.41704562500000000E+05 +8.54408755468750000E+06 -6.07572314453125000E+03
+5.20251707031250000E+05 +8.51581169531250000E+06 -6.06719482421875000E+03
+5.38954085937500000E+05 +8.53280646875000000E+06 -1.25654648437500000E+04
+5.19114507812500000E+05 +8.50801867187500000E+06 -6.19624951171875000E+03
+5.21834113281250000E+05 +8.52226502343750000E+06 -5.78290380859375000E+03
+5.29183462890625000E+05 +8.51709493750000000E+06 -1.28533828125000000E+04
+5.18778164062500000E+05 +8.50106238281250000E+06 -6.28531445312500000E+03
+5.17933857421875000E+05 +8.45695097460937500E+06 -5.22438818359375000E+03
+5.27487285156250000E+05 +8.50791318750000000E+06 -1.30482529296875000E+04
+5.25443939453125000E+05 +8.48714567578125000E+06 -1.18221669921875000E+04
+5.28642152343750000E+05 +8.52420636718750000E+06 -1.04198388671875000E+04
+5.32871054687500000E+05 +8.53778312500000000E+06 -6.00738134765625000E+03
+5.50805605468750000E+05 +8.54162160937500000E+06 -1.14387314453125000E+04
+5.22850429687500000E+05 +8.46433978906250000E+06 -9.52889453125000000E+03
+5.26831726562500000E+05 +8.50094389843750000E+06 -1.29660214843750000E+04
+5.26573171875000000E+05 +8.53104823437500000E+06 -5.86808007812500000E+03
+5.26347351562500000E+05 +8.48078447656250000E+06 -1.26195419921875000E+04
+5.16343848632812500E+05 +8.46199640429687500E+06 -4.20971093750000000E+03
+5.20662916015625000E+05 +8.45191056152343750E+06 -7.13129638671875000E+03
+5.25622804687500000E+05 +8.45278434082031250E+06 -1.11945146484375000E+04
+5.26058972656250000E+05 +8.45884315039062500E+06 -1.17884511718750000E+04

CELLS 115 460
3  71 43 65
3  70 49 52
3  32 29 30
3  55 1 6
3  61 40 58
3  22 19 18
3  69 56 35
3  72 42 39
3  74 64 3
3  62 51 28
3  76 13 75
3  51 31 28
3  68 42 14
3  57 45 50
3  59 31 51
3  53 5 44
3  65 43 41
3  76 18 13
3  73 48 66
3  67 42 51
3  57 29 45
3  77 22 76
3  67 39 42
3  76 75 46
3  55 53 48
3  38 37 36
3  59 42 54
3  57 17 29
3  62 28 27
3  77 76 46
3  73 21 16
3  47 16 15
3  63 43 44
3  52 0 1
3  75 64 46
3  65 62 27
3  22 20 19
3  56 37 35
3  76 22 18
3  73 66 21
3  66 53 44
3  59 54 50
3  60 2 4
3  66 23 21
3  65 27 24
3  70 46 49
3  71 23 44
3  71 24 23
3  55 8 53
3  68 14 17
3  74 3 0
3  72 14 42
3  67 51 62
3  69 34 50
3  72 12 14
3  75 11 7
3  59 51 42
3  69 50 45
3  63 60 43
3  57 50 54
3  26 25 22
3  45 32 33
3  77 70 15
3  57 54 17
3  73 47 48
3  61 39 40
3  68 17 54
3  55 52 1
3  25 20 22
3  66 48 53
3  66 44 23
3  77 46 70
3  58 4 9
3  60 58 41
3  55 6 8
3  69 35 34
3  74 49 64
3  55 48 47
3  72 39 12
3  73 16 47
3  61 58 9
3  63 2 60
3  71 65 24
3  61 9 12
3  74 52 49
3  55 47 52
3  70 47 15
3  53 8 5
3  71 44 43
3  56 45 33
3  11 10 7
3  75 13 11
3  60 41 43
3  45 29 32
3  60 4 58
3  64 49 46
3  59 50 34
3  68 54 42
3  70 52 47
3  75 7 64
3  58 40 41
3  63 44 5
3  67 62 40
3  56 36 37
3  63 5 2
3  61 12 39
3  69 45 56
3  74 0 52
3  67 40 39
3  65 41 62
3  59 34 31
3  77 15 22
3  64 7 3
3  56 33 36
3  62 41 40

CELL_TYPES 115
5
5
5
5
5
5
5
5
5
5
5
5
5
5
5
5
5
5
5
5
5
5
5
5
5
5
5
5
5
5
5
5
5
5
5
5
5
5
5
5
5
5
5
5
5
5
5
5
5
5
5
5
5
5
5
5
5
5
5
5
5
5
5
5
5
5
5
5
5
5
5
5
5
5
5
5
5
5
5
5
5
5
5
5
5
5
5
5
5
5
5
5
5
5
5
5
5
5
5
5
5
5
5
5
5
5
5
5
5
5
5
5
5
5
5

CELL_DATA 115
SCALARS surface_id int 1
LOOKUP_TABLE default
5
5
5
5
5
5
5
5
5
5
5
5
5
5
5
5
5
5
5
5
5
5
5
5
5
5
5
5
5
5
5
5
5
5
5
5
5
5
5
5
5
5
5
5
5
5
5
5
5
5
5
5
5
5
5
5
5
5
5
5
5
5
5
5
5
5
5
5
5
5
5
5
5
5
5
5
5
5
5
5
5
5
5
5
5
5
5
5
5
5
5
5
5
5
5
5
5
5
5
5
5
5
5
5
5
5
5
5
5
5
5
5
5
5
5

