# vtk DataFile Version 2.0
Unstructured Grid
ASCII
DATASET UNSTRUCTURED_GRID
POINTS 56 double
+5.74105281250000000E+05 +8.45126043164062500E+06 -1.19183720703125000E+04
+5.69570343750000000E+05 +8.45050414550781250E+06 -8.05085253906250000E+03
+5.71644390625000000E+05 +8.45808142968750000E+06 -8.43483105468750000E+03
+5.66431960937500000E+05 +8.45723992773437500E+06 -6.08588427734375000E+03
+5.80665906250000000E+05 +8.45463675976562500E+06 -1.45882167968750000E+04
+5.72777414062500000E+05 +8.44580388964843750E+06 -1.19063349609375000E+04
+5.69123125000000000E+05 +8.44583999609375000E+06 -8.75378125000000000E+03
+5.77870523437500000E+05 +8.44581743115234375E+06 -1.41764882812500000E+04
+5.85194726562500000E+05 +8.44582203857421875E+06 -1.54085332031250000E+04
+5.88893070312500000E+05 +8.44947929980468750E+06 -1.70952968750000000E+04
+5.90227242187500000E+05 +8.45560013085937500E+06 -1.82861699218750000E+04
+5.89767828125000000E+05 +8.45614620410156250E+06 -1.81752675781250000E+04
+5.87059226562500000E+05 +8.45962670898437500E+06 -1.73308417968750000E+04
+5.85625265625000000E+05 +8.46176923828125000E+06 -1.69008183593750000E+04
+5.85072187500000000E+05 +8.46259561914062500E+06 -1.67349570312500000E+04
+5.83764148437500000E+05 +8.46416402343750000E+06 -1.63207871093750000E+04
+5.84001343750000000E+05 +8.46420994335937500E+06 -1.64049101562500000E+04
+5.76575242187500000E+05 +8.46482195703125000E+06 -1.27232080078125000E+04
+5.82959679687500000E+05 +8.46589854101562500E+06 -1.60102939453125000E+04
+5.82912984375000000E+05 +8.46601389453125000E+06 -1.59930849609375000E+04
+5.82987523437500000E+05 +8.46585189453125000E+06 -1.60217832031250000E+04
+5.83858210937500000E+05 +8.46447072070312500E+06 -1.63328037109375000E+04
+5.80257289062500000E+05 +8.47178561914062500E+06 -1.49706308593750000E+04
+5.81897851562500000E+05 +8.46860782812500000E+06 -1.55838994140625000E+04
+5.74196390625000000E+05 +8.47237058203125000E+06 -1.08341210937500000E+04
+5.70202781250000000E+05 +8.46866548242187500E+06 -7.97008984375000000E+03
+5.76273164062500000E+05 +8.47831455859375000E+06 -1.39318359375000000E+04
+5.70725976562500000E+05 +8.47688725390625000E+06 -9.79491601562500000E+03
+5.79042164062500000E+05 +8.47771175000000000E+06 -1.44626171875000000E+04
+5.78805351562500000E+05 +8.47863503515625000E+06 -1.43748662109375000E+04
+5.80362921875000000E+05 +8.47256240625000000E+06 -1.49520185546875000E+04
+5.80510000000000000E+05 +8.47222679882812500E+06 -1.49949619140625000E+04
+5.80659000000000000E+05 +8.47177342578125000E+06 -1.50845361328125000E+04
+5.77345210937500000E+05 +8.48108264062500000E+06 -1.46742138671875000E+04
+5.76203617187500000E+05 +8.48386589843750000E+06 -1.46830488281250000E+04
+5.70352695312500000E+05 +8.48555026953125000E+06 -1.29735585937500000E+04
+5.75884507812500000E+05 +8.48556130468750000E+06 -1.48134843750000000E+04
+5.61724492187500000E+05 +8.48555993750000000E+06 -9.79693750000000000E+03
+5.61292605468750000E+05 +8.47613565625000000E+06 -6.53134033203125000E+03
+5.59588804687500000E+05 +8.47904347656250000E+06 -6.56588183593750000E+03
+5.61882332031250000E+05 +8.47207980468750000E+06 -5.67747460937500000E+03
+5.62211167968750000E+05 +8.47114259960937500E+06 -5.55428515625000000E+03
+5.60650558593750000E+05 +8.47554586718750000E+06 -6.13587597656250000E+03
+5.60439593750000000E+05 +8.47651377343750000E+06 -6.23998339843750000E+03
+5.63315210937500000E+05 +8.46799599804687500E+06 -5.14068505859375000E+03
+5.63391089843750000E+05 +8.46644270117187500E+06 -5.02081787109375000E+03
+5.65855703125000000E+05 +8.46242391796875000E+06 -5.62116455078125000E+03
+5.63407023437500000E+05 +8.46408863085937500E+06 -4.85695703125000000E+03
+5.64092871093750000E+05 +8.46199088867187500E+06 -4.95345361328125000E+03
+5.64477078125000000E+05 +8.45811352929687500E+06 -5.28277880859375000E+03
+5.64748246093750000E+05 +8.45509431738281250E+06 -5.54400244140625000E+03
+5.64832578125000000E+05 +8.45113663964843750E+06 -5.93275146484375000E+03
+5.64936371093750000E+05 +8.44989213867187500E+06 -6.04179052734375000E+03
+5.65239476562500000E+05 +8.44625770068359375E+06 -6.36022802734375000E+03
+5.65511562500000000E+05 +8.44582291455078125E+06 -6.50214941406250000E+03
+5.57257960937500000E+05 +8.48555712500000000E+06 -7.43021826171875000E+03

CELLS 68 272
3  26 29 28
3  0 1 2
3  17 15 4
3  1 5 6
3  27 35 26
3  26 34 33
3  1 54 53
3  0 5 1
3  22 24 26
3  47 45 46
3  52 1 53
3  45 44 25
3  22 17 24
3  48 46 3
3  26 35 34
3  15 17 18
3  25 27 24
3  3 46 2
3  39 37 38
3  43 39 38
3  4 8 7
3  39 55 37
3  3 2 1
3  15 16 14
3  0 4 7
3  27 37 35
3  27 38 37
3  4 9 8
3  25 24 17
3  52 51 1
3  45 25 46
3  17 4 2
3  21 15 20
3  1 6 54
3  0 2 4
3  0 7 5
3  42 43 38
3  1 51 3
3  25 38 27
3  22 32 23
3  22 30 31
3  27 26 24
3  10 9 4
3  51 50 3
3  20 15 18
3  30 22 28
3  40 42 38
3  25 2 46
3  17 22 19
3  19 22 23
3  25 17 2
3  41 40 25
3  4 15 14
3  22 26 28
3  50 49 3
3  29 26 33
3  40 38 25
3  48 47 46
3  35 36 34
3  49 48 3
3  17 19 18
3  4 13 12
3  32 22 31
3  44 41 25
3  10 4 11
3  13 4 14
3  11 4 12
3  15 21 16

CELL_TYPES 68
5
5
5
5
5
5
5
5
5
5
5
5
5
5
5
5
5
5
5
5
5
5
5
5
5
5
5
5
5
5
5
5
5
5
5
5
5
5
5
5
5
5
5
5
5
5
5
5
5
5
5
5
5
5
5
5
5
5
5
5
5
5
5
5
5
5
5
5

CELL_DATA 68
SCALARS surface_id int 1
LOOKUP_TABLE default
11
11
11
11
11
11
11
11
11
11
11
11
11
11
11
11
11
11
11
11
11
11
11
11
11
11
11
11
11
11
11
11
11
11
11
11
11
11
11
11
11
11
11
11
11
11
11
11
11
11
11
11
11
11
11
11
11
11
11
11
11
11
11
11
11
11
11
11

