# vtk DataFile Version 2.0
Unstructured Grid
ASCII
DATASET UNSTRUCTURED_GRID
POINTS 118 double
+5.46624187500000000E+05 +8.48641035546875000E+06 -9.78121289062500000E+03
+5.41773074218750000E+05 +8.49361444140625000E+06 -5.62729882812500000E+03
+5.50084785156250000E+05 +8.49635285937500000E+06 -1.16683203125000000E+04
+5.42759179687500000E+05 +8.50288099609375000E+06 -4.49300146484375000E+03
+5.52945574218750000E+05 +8.48928451953125000E+06 -1.33901513671875000E+04
+5.40890320312500000E+05 +8.48599309375000000E+06 -4.81033691406250000E+03
+5.39996992187500000E+05 +8.47969582812500000E+06 -4.04972729492187500E+03
+5.46989753906250000E+05 +8.47921698828125000E+06 -9.62611132812500000E+03
+5.44703621093750000E+05 +8.47509953906250000E+06 -7.65732568359375000E+03
+5.52428375000000000E+05 +8.48197900000000000E+06 -1.34402236328125000E+04
+5.50363699218750000E+05 +8.47336662500000000E+06 -1.20080947265625000E+04
+5.56036218750000000E+05 +8.47810599218750000E+06 -1.50423906250000000E+04
+5.56174230468750000E+05 +8.47854847265625000E+06 -1.51155546875000000E+04
+5.55913382812500000E+05 +8.47751807812500000E+06 -1.49535947265625000E+04
+5.56123898437500000E+05 +8.47676359765625000E+06 -1.48908066406250000E+04
+5.55805949218750000E+05 +8.47495525000000000E+06 -1.44215087890625000E+04
+5.55147125000000000E+05 +8.47254805664062500E+06 -1.37054902343750000E+04
+5.56213242187500000E+05 +8.47644340625000000E+06 -1.48641611328125000E+04
+5.53234765625000000E+05 +8.46769212109375000E+06 -1.35309091796875000E+04
+5.53131066406250000E+05 +8.46701394335937500E+06 -1.35617832031250000E+04
+5.45247281250000000E+05 +8.46529282226562500E+06 -9.10239062500000000E+03
+5.53129097656250000E+05 +8.46699769726562500E+06 -1.35613330078125000E+04
+5.44894710937500000E+05 +8.47083532617187500E+06 -7.93929248046875000E+03
+5.38076062500000000E+05 +8.46087625976562500E+06 -2.96628198242187500E+03
+5.39604968750000000E+05 +8.47245348632812500E+06 -3.77095410156250000E+03
+5.43918574218750000E+05 +8.45736957226562500E+06 -8.25936914062500000E+03
+5.49779816406250000E+05 +8.45989384570312500E+06 -1.20537382812500000E+04
+5.36994585937500000E+05 +8.45419816601562500E+06 -3.62957495117187500E+03
+5.41421472656250000E+05 +8.45071714257812500E+06 -7.12919335937500000E+03
+5.39057625000000000E+05 +8.44893697949218750E+06 -5.71666796875000000E+03
+5.47304296875000000E+05 +8.45105023144531250E+06 -1.06855224609375000E+04
+5.49175535156250000E+05 +8.45592446191406250E+06 -1.17090302734375000E+04
+5.45431875000000000E+05 +8.44887545507812500E+06 -9.75897265625000000E+03
+5.42773156250000000E+05 +8.44892603613281250E+06 -8.13173828125000000E+03
+5.45502859375000000E+05 +8.44887465625000000E+06 -9.80372070312500000E+03
+5.46646574218750000E+05 +8.44882676757812500E+06 -1.04420332031250000E+04
+5.47977972656250000E+05 +8.44877136523437500E+06 -1.11859121093750000E+04
+5.49868582031250000E+05 +8.44863073437500000E+06 -1.20959716796875000E+04
+5.50872335937500000E+05 +8.44856469921875000E+06 -1.25995039062500000E+04
+5.52428507812500000E+05 +8.44845683691406250E+06 -1.33672070312500000E+04
+5.52311261718750000E+05 +8.44984764648437500E+06 -1.32143730468750000E+04
+5.52051925781250000E+05 +8.45292385839843750E+06 -1.28763349609375000E+04
+5.51930957031250000E+05 +8.45391481835937500E+06 -1.28592167968750000E+04
+5.51230984375000000E+05 +8.45431880273437500E+06 -1.25769384765625000E+04
+5.50356195312500000E+05 +8.45482369140625000E+06 -1.22241591796875000E+04
+5.49248496093750000E+05 +8.45546299121093750E+06 -1.17774560546875000E+04
+5.41927414062500000E+05 +8.44894212597656250E+06 -7.61411230468750000E+03
+5.41186097656250000E+05 +8.44896539746093750E+06 -7.18204052734375000E+03
+5.39662027343750000E+05 +8.44905047656250000E+06 -6.38164306640625000E+03
+5.49811394531250000E+05 +8.45856427148437500E+06 -1.19952734375000000E+04
+5.35945667968750000E+05 +8.44889314648437500E+06 -3.56881005859375000E+03
+5.50422492187500000E+05 +8.46236016992187500E+06 -1.23330087890625000E+04
+5.51182371093750000E+05 +8.46364765820312500E+06 -1.26860078125000000E+04
+5.52184109375000000E+05 +8.46534493945312500E+06 -1.31513623046875000E+04
+5.53019644531250000E+05 +8.46659268945312500E+06 -1.35205859375000000E+04
+5.56944222656250000E+05 +8.48023673437500000E+06 -1.55080498046875000E+04
+5.57309781250000000E+05 +8.48163011718750000E+06 -1.57062871093750000E+04
+5.57992609375000000E+05 +8.48641917968750000E+06 -1.59364902343750000E+04
+5.57244121093750000E+05 +8.48129233203125000E+06 -1.56663994140625000E+04
+5.57328503906250000E+05 +8.48131089062500000E+06 -1.56973320312500000E+04
+5.57086093750000000E+05 +8.48051003125000000E+06 -1.55718984375000000E+04
+5.58014515625000000E+05 +8.48146177343750000E+06 -1.59488085937500000E+04
+5.58249039062500000E+05 +8.48149440234375000E+06 -1.60294296875000000E+04
+5.58351132812500000E+05 +8.48153459375000000E+06 -1.60645009765625000E+04
+5.60038652343750000E+05 +8.48378571875000000E+06 -1.66426660156250000E+04
+5.58296007812500000E+05 +8.48150093750000000E+06 -1.60455751953125000E+04
+5.61811933593750000E+05 +8.48642822656250000E+06 -1.77331445312500000E+04
+5.64032675781250000E+05 +8.48973753515625000E+06 -1.90987890625000000E+04
+5.58009437500000000E+05 +8.49537021875000000E+06 -1.61920800781250000E+04
+5.64304980468750000E+05 +8.49013608984375000E+06 -1.92482265625000000E+04
+5.55373273437500000E+05 +8.50265903125000000E+06 -1.45508339843750000E+04
+5.51092273437500000E+05 +8.50600199218750000E+06 -1.24470507812500000E+04
+5.60776628906250000E+05 +8.50409760156250000E+06 -1.75693183593750000E+04
+5.64755531250000000E+05 +8.49858723046875000E+06 -1.95938281250000000E+04
+5.56904148437500000E+05 +8.51126144531250000E+06 -1.56571269531250000E+04
+5.63298515625000000E+05 +8.51052750781250000E+06 -1.89945332031250000E+04
+5.52218074218750000E+05 +8.51125914843750000E+06 -1.28014638671875000E+04
+5.48784839843750000E+05 +8.51141189843750000E+06 -9.93107519531250000E+03
+5.52506363281250000E+05 +8.51611483593750000E+06 -1.28361708984375000E+04
+5.57206894531250000E+05 +8.51986699218750000E+06 -1.58101972656250000E+04
+5.63216332031250000E+05 +8.51812771093750000E+06 -1.91897695312500000E+04
+5.52795332031250000E+05 +8.52397327343750000E+06 -1.32129521484375000E+04
+5.52130042968750000E+05 +8.52400041406250000E+06 -1.28062177734375000E+04
+5.55204972656250000E+05 +8.52413111718750000E+06 -1.45640000000000000E+04
+5.57163339843750000E+05 +8.52382269531250000E+06 -1.56743222656250000E+04
+5.59307246093750000E+05 +8.52348547656250000E+06 -1.68819687500000000E+04
+5.59431066406250000E+05 +8.52345760937500000E+06 -1.70921386718750000E+04
+5.59430695312500000E+05 +8.52345117968750000E+06 -1.70954746093750000E+04
+5.59409070312500000E+05 +8.52336724218750000E+06 -1.71128867187500000E+04
+5.59564980468750000E+05 +8.52330417187500000E+06 -1.72002890625000000E+04
+5.62275703125000000E+05 +8.52301067187500000E+06 -1.84639726562500000E+04
+5.65314171875000000E+05 +8.52253553125000000E+06 -1.98892265625000000E+04
+5.65427140625000000E+05 +8.52251563281250000E+06 -1.99821269531250000E+04
+5.65642976562500000E+05 +8.52178300000000000E+06 -2.03087597656250000E+04
+5.67314390625000000E+05 +8.52174668750000000E+06 -2.10418437500000000E+04
+5.67971789062500000E+05 +8.52099696093750000E+06 -2.13193359375000000E+04
+5.69841726562500000E+05 +8.51932574218750000E+06 -2.20205859375000000E+04
+5.70781843750000000E+05 +8.51336284375000000E+06 -2.21240253906250000E+04
+5.65937570312500000E+05 +8.50567346875000000E+06 -2.00806816406250000E+04
+5.71665507812500000E+05 +8.50222403906250000E+06 -2.20353320312500000E+04
+5.71275242187500000E+05 +8.50110845312500000E+06 -2.17426328125000000E+04
+5.71750945312500000E+05 +8.50198282031250000E+06 -2.19613105468750000E+04
+5.69001421875000000E+05 +8.49670873046875000E+06 -2.03944511718750000E+04
+5.68188523437500000E+05 +8.49542584375000000E+06 -1.99618007812500000E+04
+5.67413265625000000E+05 +8.49437839453125000E+06 -1.98331035156250000E+04
+5.64499589843750000E+05 +8.49044174218750000E+06 -1.93494199218750000E+04
+5.51744503906250000E+05 +8.52408201562500000E+06 -1.25391044921875000E+04
+5.48671550781250000E+05 +8.51890203906250000E+06 -9.87527929687500000E+03
+5.51846121093750000E+05 +8.52447074218750000E+06 -1.24139082031250000E+04
+5.41774468750000000E+05 +8.51269578125000000E+06 -3.70337329101562500E+03
+5.40644253906250000E+05 +8.52153359375000000E+06 -3.75937939453125000E+03
+5.45478296875000000E+05 +8.52371232812500000E+06 -7.71030908203125000E+03
+5.43918085937500000E+05 +8.52322802343750000E+06 -6.61915478515625000E+03
+5.46538304687500000E+05 +8.52400915625000000E+06 -8.47048242187500000E+03
+5.47435859375000000E+05 +8.52427950781250000E+06 -9.11329980468750000E+03
+5.50041726562500000E+05 +8.52495892968750000E+06 -1.10402275390625000E+04
+5.50858539062500000E+05 +8.52482947656250000E+06 -1.16583017578125000E+04
+5.64282218750000000E+05 +8.49009988671875000E+06 -1.92356562500000000E+04

CELLS 144 576
3  70 74 72
3  22 8 10
3  78 74 76
3  87 79 86
3  93 80 92
3  111 110 112
3  61 59 56
3  73 68 72
3  2 3 71
3  102 73 100
3  29 27 28
3  94 80 93
3  75 80 97
3  57 67 66
3  70 68 2
3  0 5 1
3  46 47 28
3  96 80 95
3  74 71 76
3  0 1 2
3  12 11 9
3  57 68 67
3  2 1 3
3  83 79 81
3  62 61 57
3  30 32 28
3  20 10 19
3  8 24 6
3  26 49 25
3  77 76 71
3  57 64 63
3  58 60 55
3  20 19 21
3  57 61 56
3  79 80 74
3  103 73 102
3  49 31 25
3  115 107 114
3  8 7 10
3  57 66 64
3  22 23 24
3  30 28 25
3  107 116 108
3  0 7 6
3  73 99 100
3  33 46 28
3  43 42 30
3  30 42 41
3  40 30 41
3  107 115 116
3  9 0 4
3  30 40 39
3  22 20 23
3  77 3 109
3  25 27 23
3  107 113 114
3  29 50 27
3  51 26 20
3  53 52 20
3  0 6 5
3  31 45 30
3  9 10 7
3  73 105 69
3  79 78 81
3  89 80 79
3  98 73 72
3  54 20 21
3  35 34 30
3  58 55 56
3  11 13 10
3  2 68 4
3  99 101 100
3  98 75 97
3  80 94 95
3  37 36 30
3  45 44 30
3  77 109 107
3  47 48 28
3  57 4 68
3  14 17 15
3  78 77 107
3  78 106 82
3  87 88 79
3  67 69 117
3  70 71 74
3  38 30 39
3  67 68 69
3  98 99 73
3  22 10 20
3  13 14 10
3  79 85 86
3  107 109 110
3  48 29 28
3  59 58 56
3  9 4 57
3  55 12 9
3  54 53 20
3  9 7 0
3  11 10 9
3  62 57 63
3  98 72 75
3  78 79 74
3  96 97 80
3  32 33 28
3  80 91 92
3  106 107 108
3  52 51 20
3  0 2 4
3  22 24 8
3  25 28 27
3  44 43 30
3  113 107 111
3  25 23 20
3  107 110 111
3  105 73 104
3  9 57 56
3  20 26 25
3  78 76 77
3  55 9 56
3  19 10 18
3  83 84 79
3  98 97 99
3  34 32 30
3  8 6 7
3  36 35 30
3  78 107 106
3  70 72 68
3  79 84 85
3  25 31 30
3  70 2 71
3  10 15 16
3  14 15 10
3  65 62 63
3  38 37 30
3  81 78 82
3  89 90 80
3  77 71 3
3  73 103 104
3  18 10 16
3  75 72 74
3  90 91 80
3  88 89 79
3  75 74 80
3  68 73 69

CELL_TYPES 144
5
5
5
5
5
5
5
5
5
5
5
5
5
5
5
5
5
5
5
5
5
5
5
5
5
5
5
5
5
5
5
5
5
5
5
5
5
5
5
5
5
5
5
5
5
5
5
5
5
5
5
5
5
5
5
5
5
5
5
5
5
5
5
5
5
5
5
5
5
5
5
5
5
5
5
5
5
5
5
5
5
5
5
5
5
5
5
5
5
5
5
5
5
5
5
5
5
5
5
5
5
5
5
5
5
5
5
5
5
5
5
5
5
5
5
5
5
5
5
5
5
5
5
5
5
5
5
5
5
5
5
5
5
5
5
5
5
5
5
5
5
5
5
5

CELL_DATA 144
SCALARS surface_id int 1
LOOKUP_TABLE default
8
8
8
8
8
8
8
8
8
8
8
8
8
8
8
8
8
8
8
8
8
8
8
8
8
8
8
8
8
8
8
8
8
8
8
8
8
8
8
8
8
8
8
8
8
8
8
8
8
8
8
8
8
8
8
8
8
8
8
8
8
8
8
8
8
8
8
8
8
8
8
8
8
8
8
8
8
8
8
8
8
8
8
8
8
8
8
8
8
8
8
8
8
8
8
8
8
8
8
8
8
8
8
8
8
8
8
8
8
8
8
8
8
8
8
8
8
8
8
8
8
8
8
8
8
8
8
8
8
8
8
8
8
8
8
8
8
8
8
8
8
8
8
8

