# vtk DataFile Version 2.0
Unstructured Grid
ASCII
DATASET UNSTRUCTURED_GRID
POINTS 82 double
+5.55124191406250000E+05 +8.47943271875000000E+06 -6.30221142578125000E+03
+5.59198640625000000E+05 +8.48021758593750000E+06 -8.95422558593750000E+03
+5.54150902343750000E+05 +8.47354657812500000E+06 -5.99524804687500000E+03
+5.54342894531250000E+05 +8.47295420312500000E+06 -6.15627734375000000E+03
+5.55796906250000000E+05 +8.48455631250000000E+06 -6.63601123046875000E+03
+5.56547089843750000E+05 +8.48580776953125000E+06 -7.10123046875000000E+03
+5.56026859375000000E+05 +8.48577956250000000E+06 -6.68923632812500000E+03
+5.62535269531250000E+05 +8.48524368359375000E+06 -1.01992373046875000E+04
+5.60433183593750000E+05 +8.47890527343750000E+06 -9.28668554687500000E+03
+5.59599214843750000E+05 +8.49144687890625000E+06 -8.57827050781250000E+03
+5.64959957031250000E+05 +8.49261026171875000E+06 -1.08785400390625000E+04
+5.56353789062500000E+05 +8.48852475781250000E+06 -6.88087597656250000E+03
+5.56153410156250000E+05 +8.48731896875000000E+06 -6.81837402343750000E+03
+5.57108062500000000E+05 +8.49306369531250000E+06 -7.11615234375000000E+03
+5.57194000000000000E+05 +8.49367582812500000E+06 -7.15390673828125000E+03
+5.57470644531250000E+05 +8.49722508593750000E+06 -7.24544677734375000E+03
+5.59556136718750000E+05 +8.49863962109375000E+06 -8.41689453125000000E+03
+5.57659171875000000E+05 +8.50136067968750000E+06 -7.40681250000000000E+03
+5.63887316406250000E+05 +8.49764321484375000E+06 -1.01763857421875000E+04
+5.61514187500000000E+05 +8.50222515234375000E+06 -9.73148242187500000E+03
+5.69072320312500000E+05 +8.49730231640625000E+06 -1.38221816406250000E+04
+5.71638382812500000E+05 +8.49191274609375000E+06 -1.43258496093750000E+04
+5.66932414062500000E+05 +8.50222224609375000E+06 -1.28866542968750000E+04
+5.72154015625000000E+05 +8.50222200781250000E+06 -1.59384287109375000E+04
+5.75058132812500000E+05 +8.49679175390625000E+06 -1.68333183593750000E+04
+5.77856492187500000E+05 +8.50222321093750000E+06 -1.86833378906250000E+04
+5.78113617187500000E+05 +8.49120958984375000E+06 -1.69898496093750000E+04
+5.82209875000000000E+05 +8.49712543750000000E+06 -1.91733164062500000E+04
+5.74356906250000000E+05 +8.48478948437500000E+06 -1.44942783203125000E+04
+5.81783195312500000E+05 +8.48485315625000000E+06 -1.56760332031250000E+04
+5.68458054687500000E+05 +8.48732503125000000E+06 -1.21470839843750000E+04
+5.68258007812500000E+05 +8.48086519921875000E+06 -1.23118476562500000E+04
+5.67385429687500000E+05 +8.47184741015625000E+06 -1.25404052734375000E+04
+5.59394425781250000E+05 +8.47554370312500000E+06 -9.63596582031250000E+03
+5.73689312500000000E+05 +8.47690198046875000E+06 -1.39283437500000000E+04
+5.74437890625000000E+05 +8.47055191601562500E+06 -1.43421396484375000E+04
+5.78719179687500000E+05 +8.47945165234375000E+06 -1.47148466796875000E+04
+5.78851703125000000E+05 +8.47356971093750000E+06 -1.47786142578125000E+04
+5.85465796875000000E+05 +8.47716660937500000E+06 -1.56512158203125000E+04
+5.82418867187500000E+05 +8.47038422070312500E+06 -1.53523173828125000E+04
+5.90452000000000000E+05 +8.48563498828125000E+06 -1.78818613281250000E+04
+5.86731703125000000E+05 +8.49107339453125000E+06 -1.82955234375000000E+04
+5.90466476562500000E+05 +8.47359997265625000E+06 -1.67438300781250000E+04
+5.85988179687500000E+05 +8.46963395898437500E+06 -1.56337060546875000E+04
+5.89511500000000000E+05 +8.46191434179687500E+06 -1.75068476562500000E+04
+5.83302968750000000E+05 +8.46490641601562500E+06 -1.61885869140625000E+04
+5.78636921875000000E+05 +8.46734396093750000E+06 -1.56639521484375000E+04
+5.83595289062500000E+05 +8.45843566992187500E+06 -1.68479042968750000E+04
+5.88038234375000000E+05 +8.45207815429687500E+06 -1.82620058593750000E+04
+5.79562937500000000E+05 +8.46185625781250000E+06 -1.62216074218750000E+04
+5.78733593750000000E+05 +8.45620294433593750E+06 -1.62748671875000000E+04
+5.73338390625000000E+05 +8.46298631445312500E+06 -1.47594550781250000E+04
+5.82937500000000000E+05 +8.45427515039062500E+06 -1.70077421875000000E+04
+5.81667398437500000E+05 +8.45069708886718750E+06 -1.68658320312500000E+04
+5.85232132812500000E+05 +8.44583179541015625E+06 -1.75755175781250000E+04
+5.79394687500000000E+05 +8.44478095654296875E+06 -1.66774882812500000E+04
+5.75800062500000000E+05 +8.45105679492187500E+06 -1.58907490234375000E+04
+5.72762390625000000E+05 +8.44583242285156250E+06 -1.50028720703125000E+04
+5.73207265625000000E+05 +8.45589139648437500E+06 -1.51322187500000000E+04
+5.69134117187500000E+05 +8.45207188671875000E+06 -1.41361591796875000E+04
+5.69028023437500000E+05 +8.45791819140625000E+06 -1.39215419921875000E+04
+5.65582078125000000E+05 +8.46279628515625000E+06 -1.26019414062500000E+04
+5.64239890625000000E+05 +8.45618375097656250E+06 -1.22289677734375000E+04
+5.58597328125000000E+05 +8.46476263281250000E+06 -9.03589941406250000E+03
+5.59227746093750000E+05 +8.47015319921875000E+06 -9.34479003906250000E+03
+5.59388765625000000E+05 +8.45582512988281250E+06 -9.54220410156250000E+03
+5.52674726562500000E+05 +8.45456882812500000E+06 -5.01596044921875000E+03
+5.62940039062500000E+05 +8.45068349609375000E+06 -1.18965556640625000E+04
+5.57728210937500000E+05 +8.44939851464843750E+06 -9.09983203125000000E+03
+5.66948312500000000E+05 +8.44583356298828125E+06 -1.34168867187500000E+04
+5.61474562500000000E+05 +8.44582245605468750E+06 -1.14637216796875000E+04
+5.56675914062500000E+05 +8.44583277783203125E+06 -8.59251367187500000E+03
+5.51548941406250000E+05 +8.44598166455078125E+06 -4.44810009765625000E+03
+5.54863800781250000E+05 +8.46553644335937500E+06 -4.95212988281250000E+03
+5.91482640625000000E+05 +8.49581499609375000E+06 -2.05292968750000000E+04
+5.87409742187500000E+05 +8.50222537500000000E+06 -2.20451738281250000E+04
+5.91289742187500000E+05 +8.50222026562500000E+06 -2.24531816406250000E+04
+5.83003937500000000E+05 +8.50223173828125000E+06 -2.05998691406250000E+04
+5.57758773437500000E+05 +8.50222175000000000E+06 -7.73237890625000000E+03
+5.57725812500000000E+05 +8.50222213281250000E+06 -7.68950341796875000E+03
+5.57655457031250000E+05 +8.50222248046875000E+06 -7.61392919921875000E+03
+5.57534746093750000E+05 +8.50222238281250000E+06 -7.50735839843750000E+03

CELLS 126 504
3  81 16 17
3  5 7 1
3  31 8 7
3  5 9 7
3  5 1 4
3  67 70 68
3  68 66 65
3  51 46 49
3  50 56 58
3  5 6 12
3  15 9 14
3  41 29 26
3  5 12 11
3  50 51 49
3  24 20 23
3  38 29 40
3  16 79 78
3  43 38 42
3  18 16 19
3  43 45 39
3  62 61 60
3  21 30 10
3  31 7 30
3  27 25 77
3  31 34 32
3  35 46 51
3  62 59 67
3  63 66 73
3  60 51 58
3  50 52 53
3  47 44 48
3  45 49 46
3  16 80 79
3  50 58 51
3  56 57 59
3  20 22 23
3  16 15 17
3  18 20 10
3  41 40 29
3  41 26 27
3  33 3 1
3  64 33 32
3  62 60 59
3  76 74 75
3  0 1 2
3  1 0 4
3  67 59 69
3  31 32 8
3  51 61 32
3  45 46 39
3  9 11 13
3  18 10 16
3  16 78 19
3  67 69 70
3  5 4 6
3  62 63 61
3  60 58 59
3  56 53 55
3  31 28 34
3  64 3 33
3  81 80 16
3  27 75 74
3  21 24 26
3  56 55 57
3  27 77 75
3  9 5 11
3  52 48 53
3  1 3 2
3  53 48 54
3  9 16 10
3  36 37 34
3  62 65 63
3  9 10 7
3  41 27 74
3  36 34 28
3  35 32 34
3  47 52 50
3  47 48 52
3  47 45 44
3  39 46 37
3  68 72 66
3  53 54 55
3  38 40 42
3  43 44 45
3  36 38 37
3  35 51 32
3  50 53 56
3  43 42 44
3  33 1 8
3  36 28 29
3  64 61 63
3  62 67 65
3  18 22 20
3  35 34 37
3  18 19 22
3  60 61 51
3  64 73 3
3  47 49 45
3  16 9 15
3  68 71 72
3  59 57 69
3  36 29 38
3  64 63 73
3  47 50 49
3  67 68 65
3  68 70 71
3  10 30 7
3  63 65 66
3  33 8 32
3  9 13 14
3  24 27 26
3  21 10 20
3  64 32 61
3  24 23 25
3  31 30 28
3  41 74 40
3  21 28 30
3  28 26 29
3  24 25 27
3  43 39 38
3  56 59 58
3  39 37 38
3  21 26 28
3  35 37 46
3  1 7 8
3  21 20 24

CELL_TYPES 126
5
5
5
5
5
5
5
5
5
5
5
5
5
5
5
5
5
5
5
5
5
5
5
5
5
5
5
5
5
5
5
5
5
5
5
5
5
5
5
5
5
5
5
5
5
5
5
5
5
5
5
5
5
5
5
5
5
5
5
5
5
5
5
5
5
5
5
5
5
5
5
5
5
5
5
5
5
5
5
5
5
5
5
5
5
5
5
5
5
5
5
5
5
5
5
5
5
5
5
5
5
5
5
5
5
5
5
5
5
5
5
5
5
5
5
5
5
5
5
5
5
5
5
5
5
5

CELL_DATA 126
SCALARS surface_id int 1
LOOKUP_TABLE default
10
10
10
10
10
10
10
10
10
10
10
10
10
10
10
10
10
10
10
10
10
10
10
10
10
10
10
10
10
10
10
10
10
10
10
10
10
10
10
10
10
10
10
10
10
10
10
10
10
10
10
10
10
10
10
10
10
10
10
10
10
10
10
10
10
10
10
10
10
10
10
10
10
10
10
10
10
10
10
10
10
10
10
10
10
10
10
10
10
10
10
10
10
10
10
10
10
10
10
10
10
10
10
10
10
10
10
10
10
10
10
10
10
10
10
10
10
10
10
10
10
10
10
10
10
10

