# vtk DataFile Version 2.0
Unstructured Grid
ASCII
DATASET UNSTRUCTURED_GRID
POINTS 75 double
+5.26372271484375000E+05 +8.47460438281250000E+06 -1.08157226562500000E+03
+5.27276890625000000E+05 +8.46584918359375000E+06 -9.30406738281250000E+02
+5.29108646484375000E+05 +8.49473335546875000E+06 -2.14148974609375000E+03
+5.32961996093750000E+05 +8.50541356250000000E+06 -2.78328979492187500E+03
+5.29140556640625000E+05 +8.45834767187500000E+06 -1.12435437011718750E+03
+5.31498882812500000E+05 +8.45220653222656250E+06 -1.64745654296875000E+03
+5.34566218750000000E+05 +8.44566746582031250E+06 -2.49953735351562500E+03
+5.43725800781250000E+05 +8.52603833593750000E+06 -3.51002709960937500E+03
+5.49262140625000000E+05 +8.53493189843750000E+06 -3.30403076171875000E+03
+5.54270953125000000E+05 +8.54248675000000000E+06 -2.69870458984375000E+03
+5.53580664062500000E+05 +8.44583484619140625E+06 -1.41874121093750000E+04
+5.59893628906250000E+05 +8.55070992187500000E+06 -1.69148388671875000E+03
+5.60206941406250000E+05 +8.44582972949218750E+06 -1.65593398437500000E+04
+5.68641656250000000E+05 +8.54780868750000000E+06 -9.49882714843750000E+03
+5.76049703125000000E+05 +8.54451892187500000E+06 -1.32650380859375000E+04
+5.81162171875000000E+05 +8.48568336328125000E+06 -1.99114238281250000E+04
+5.79213609375000000E+05 +8.44582717675781250E+06 -2.04607675781250000E+04
+5.82144078125000000E+05 +8.49744435546875000E+06 -2.15376015625000000E+04
+5.80195796875000000E+05 +8.45516216015625000E+06 -1.92126523437500000E+04
+5.84066750000000000E+05 +8.50842266406250000E+06 -2.29647265625000000E+04
+5.86793289062500000E+05 +8.51781782812500000E+06 -2.34080644531250000E+04
+5.91240500000000000E+05 +8.53868909375000000E+06 -1.85274609375000000E+04
+5.89878890625000000E+05 +8.52551485156250000E+06 -2.26565468750000000E+04
+5.93719273437500000E+05 +8.53371806250000000E+06 -2.08425644531250000E+04
+5.54094773437500000E+05 +8.46014311718750000E+06 -1.33840039062500000E+04
+5.48553214843750000E+05 +8.48227712890625000E+06 -1.58136240234375000E+04
+5.57870781250000000E+05 +8.49837851562500000E+06 -2.04701992187500000E+04
+5.62758683593750000E+05 +8.51364344531250000E+06 -2.16574335937500000E+04
+5.78661687500000000E+05 +8.52622217187500000E+06 -2.07673417968750000E+04
+5.58410144531250000E+05 +8.53435298437500000E+06 -1.02357197265625000E+04
+5.41871613281250000E+05 +8.48950571484375000E+06 -1.31290605468750000E+04
+5.42650562500000000E+05 +8.46607245117187500E+06 -1.06245722656250000E+04
+5.61749835937500000E+05 +8.46954789257812500E+06 -1.47924013671875000E+04
+5.50943808593750000E+05 +8.51359528906250000E+06 -1.61447402343750000E+04
+5.62290269531250000E+05 +8.48931022265625000E+06 -1.94660566406250000E+04
+5.33397359375000000E+05 +8.48500986718750000E+06 -7.58184814453125000E+03
+5.73482640625000000E+05 +8.45556179296875000E+06 -1.79478339843750000E+04
+5.62825070312500000E+05 +8.50473839843750000E+06 -2.24202187500000000E+04
+5.45031328125000000E+05 +8.50560176562500000E+06 -1.34474853515625000E+04
+5.49692175781250000E+05 +8.52169024218750000E+06 -1.18457089843750000E+04
+5.74273742187500000E+05 +8.53556285937500000E+06 -1.57359150390625000E+04
+5.75567695312500000E+05 +8.51640813281250000E+06 -2.30458632812500000E+04
+5.62445433593750000E+05 +8.45282606738281250E+06 -1.59547910156250000E+04
+5.69185335937500000E+05 +8.47901867187500000E+06 -1.66550390625000000E+04
+5.68364093750000000E+05 +8.49773181250000000E+06 -2.11480156250000000E+04
+5.45770351562500000E+05 +8.45423820214843750E+06 -1.03975058593750000E+04
+5.72127929687500000E+05 +8.46706602343750000E+06 -1.65765625000000000E+04
+5.66910796875000000E+05 +8.53060285156250000E+06 -1.62403632812500000E+04
+5.33459441406250000E+05 +8.47518680078125000E+06 -7.21079785156250000E+03
+5.44385390625000000E+05 +8.51733351562500000E+06 -9.74186230468750000E+03
+5.33985187500000000E+05 +8.49081043750000000E+06 -8.08808105468750000E+03
+5.38415000000000000E+05 +8.49888033203125000E+06 -1.01312626953125000E+04
+5.72463328125000000E+05 +8.50667557031250000E+06 -2.28642207031250000E+04
+5.51196964843750000E+05 +8.47266332617187500E+06 -1.37058261718750000E+04
+5.38132179687500000E+05 +8.45719633789062500E+06 -7.38326855468750000E+03
+5.42094253906250000E+05 +8.47830952343750000E+06 -1.18110136718750000E+04
+5.33608078125000000E+05 +8.46650246875000000E+06 -6.11028857421875000E+03
+5.65838031250000000E+05 +8.53976805468750000E+06 -1.07418300781250000E+04
+5.57793093750000000E+05 +8.52365091406250000E+06 -1.63249111328125000E+04
+5.83477437500000000E+05 +8.53442108593750000E+06 -1.83913281250000000E+04
+5.52608656250000000E+05 +8.49016079296875000E+06 -1.67581210937500000E+04
+5.47755554687500000E+05 +8.50117542968750000E+06 -1.61724882812500000E+04
+5.67705281250000000E+05 +8.52244196093750000E+06 -2.09890253906250000E+04
+5.71712375000000000E+05 +8.48995391796875000E+06 -1.87313906250000000E+04
+5.65032121093750000E+05 +8.46033031835937500E+06 -1.55657675781250000E+04
+5.57721839843750000E+05 +8.48037837109375000E+06 -1.55538886718750000E+04
+5.56188847656250000E+05 +8.50639587500000000E+06 -2.01879355468750000E+04
+5.51895589843750000E+05 +8.52850175000000000E+06 -9.83051464843750000E+03
+5.44849433593750000E+05 +8.44583329833984375E+06 -9.60363085937500000E+03
+5.38057855468750000E+05 +8.51601739843750000E+06 -3.29169482421875000E+03
+5.83805632812500000E+05 +8.54153589062500000E+06 -1.53493515625000000E+04
+5.69688976562500000E+05 +8.44583523876953125E+06 -1.86138144531250000E+04
+5.26874724609375000E+05 +8.48435064453125000E+06 -1.52531494140625000E+03
+5.80900390625000000E+05 +8.47414627734375000E+06 -1.88206718750000000E+04
+5.80741437500000000E+05 +8.46378139843750000E+06 -1.85844726562500000E+04

CELLS 117 468
3  52 41 19
3  49 39 33
3  63 43 34
3  55 48 35
3  62 47 28
3  66 27 37
3  66 26 61
3  38 51 3
3  66 33 27
3  29 8 9
3  43 15 73
3  65 34 43
3  62 27 58
3  47 40 28
3  55 53 31
3  62 28 41
3  63 15 43
3  56 31 54
3  64 46 36
3  45 68 6
3  66 37 26
3  53 32 24
3  36 16 71
3  67 58 39
3  59 21 23
3  62 58 47
3  56 48 31
3  64 42 24
3  42 36 71
3  67 8 29
3  61 60 30
3  59 22 28
3  57 13 14
3  61 51 38
3  44 34 26
3  53 24 31
3  65 32 53
3  69 38 3
3  51 30 50
3  63 34 44
3  35 48 72
3  65 25 60
3  45 24 10
3  57 14 40
3  54 45 6
3  55 30 25
3  57 40 47
3  45 31 24
3  49 38 69
3  18 36 74
3  55 25 53
3  2 50 72
3  65 43 32
3  36 18 16
3  64 32 46
3  58 33 39
3  46 43 73
3  41 28 20
3  66 61 33
3  52 19 17
3  9 11 13
3  36 46 74
3  62 41 27
3  55 35 30
3  60 26 34
3  42 12 10
3  41 20 19
3  54 31 45
3  51 2 3
3  57 47 29
3  42 10 24
3  28 22 20
3  58 27 33
3  61 30 51
3  54 5 4
3  59 28 40
3  50 35 72
3  7 49 69
3  64 24 32
3  61 26 60
3  60 25 30
3  67 29 58
3  12 42 71
3  58 29 47
3  56 54 4
3  49 7 39
3  45 10 68
3  52 44 37
3  74 46 73
3  57 29 9
3  56 1 0
3  63 44 17
3  67 39 7
3  65 53 25
3  48 0 72
3  52 37 27
3  59 40 14
3  49 33 38
3  56 4 1
3  63 17 15
3  52 27 41
3  50 30 35
3  5 54 6
3  46 32 43
3  65 60 34
3  51 50 2
3  59 14 70
3  59 70 21
3  55 31 48
3  64 36 42
3  59 23 22
3  57 9 13
3  61 38 33
3  67 7 8
3  44 26 37
3  56 0 48
3  52 17 44

CELL_TYPES 117
5
5
5
5
5
5
5
5
5
5
5
5
5
5
5
5
5
5
5
5
5
5
5
5
5
5
5
5
5
5
5
5
5
5
5
5
5
5
5
5
5
5
5
5
5
5
5
5
5
5
5
5
5
5
5
5
5
5
5
5
5
5
5
5
5
5
5
5
5
5
5
5
5
5
5
5
5
5
5
5
5
5
5
5
5
5
5
5
5
5
5
5
5
5
5
5
5
5
5
5
5
5
5
5
5
5
5
5
5
5
5
5
5
5
5
5
5

CELL_DATA 117
SCALARS surface_id int 1
LOOKUP_TABLE default
7
7
7
7
7
7
7
7
7
7
7
7
7
7
7
7
7
7
7
7
7
7
7
7
7
7
7
7
7
7
7
7
7
7
7
7
7
7
7
7
7
7
7
7
7
7
7
7
7
7
7
7
7
7
7
7
7
7
7
7
7
7
7
7
7
7
7
7
7
7
7
7
7
7
7
7
7
7
7
7
7
7
7
7
7
7
7
7
7
7
7
7
7
7
7
7
7
7
7
7
7
7
7
7
7
7
7
7
7
7
7
7
7
7
7
7
7

