# vtk DataFile Version 2.0
Unstructured Grid
ASCII
DATASET POLYDATA
POINTS 36 double
+3.18517133789062500E+05 +7.05377037841796875E+06 -4.76967041015625000E+03
+3.18751814453125000E+05 +7.05381250732421875E+06 -4.75757226562500000E+03
+3.18592411132812500E+05 +7.05402065722656250E+06 -4.78692138671875000E+03
+3.18844733398437500E+05 +7.05401880957031250E+06 -4.76004980468750000E+03
+3.18388276367187500E+05 +7.05392964013671875E+06 -4.79206640625000000E+03
+3.18337774414062500E+05 +7.05415478320312500E+06 -4.82185107421875000E+03
+3.18211107421875000E+05 +7.05395707763671875E+06 -4.81603857421875000E+03
+3.18289562500000000E+05 +7.05477100830078125E+06 -4.85473828125000000E+03
+3.18270366210937500E+05 +7.05453136572265625E+06 -4.84734228515625000E+03
+3.18483129882812500E+05 +7.05478450878906250E+06 -4.82780908203125000E+03
+3.18604455078125000E+05 +7.05489298242187500E+06 -4.81788623046875000E+03
+3.18458711914062500E+05 +7.05460599121093750E+06 -4.82307910156250000E+03
+3.18616209960937500E+05 +7.05469630273437500E+06 -4.80815722656250000E+03
+3.18649446289062500E+05 +7.05446261572265625E+06 -4.80099316406250000E+03
+3.18745096679687500E+05 +7.05478189648437500E+06 -4.79786914062500000E+03
+3.18791565429687500E+05 +7.05465747998046875E+06 -4.79177587890625000E+03
+3.18830036132812500E+05 +7.05452721240234375E+06 -4.78631835937500000E+03
+3.18846478515625000E+05 +7.05440045361328125E+06 -4.78078320312500000E+03
+3.18743928710937500E+05 +7.05422070458984375E+06 -4.78142871093750000E+03
+3.18989504882812500E+05 +7.05422410107421875E+06 -4.75515673828125000E+03
+3.18551265625000000E+05 +7.05424904638671875E+06 -4.80520361328125000E+03
+3.18422807617187500E+05 +7.05439188525390625E+06 -4.82311376953125000E+03
+3.19049158203125000E+05 +7.05399173486328125E+06 -4.73742724609375000E+03
+3.18936417968750000E+05 +7.05385452978515625E+06 -4.74325683593750000E+03
+3.19193024414062500E+05 +7.05412372558593750E+06 -4.73549658203125000E+03
+3.19232272460937500E+05 +7.05393519677734375E+06 -4.72253564453125000E+03
+3.19171148437500000E+05 +7.05429114843750000E+06 -4.74822167968750000E+03
+3.19077116210937500E+05 +7.05439355908203125E+06 -4.76095458984375000E+03
+3.18963507812500000E+05 +7.05441855322265625E+06 -4.77115283203125000E+03
+3.19242324218750000E+05 +7.05447039111328125E+06 -4.76009228515625000E+03
+3.19028001953125000E+05 +7.05457482470703125E+06 -4.78139794921875000E+03
+3.18835977539062500E+05 +7.05452979248046875E+06 -4.79164111328125000E+03
+3.18812374023437500E+05 +7.05465416503906250E+06 -4.80904248046875000E+03
+3.19097309570312500E+05 +7.05380427001953125E+06 -4.72497656250000000E+03
+3.18253211914062500E+05 +7.05435155468750000E+06 -4.84305224609375000E+03
+3.18127294921875000E+05 +7.05424915527343750E+06 -4.84869042968750000E+03

CELLS 43 172
3  19 17 28
3  13 20 21
3  14 12 10
3  8 21 34
3  18 2 20
3  9 12 11
3  6 5 4
3  19 24 22
3  25 22 24
3  19 3 18
3  18 20 13
3  18 3 2
3  8 11 21
3  28 31 30
3  18 13 17
3  30 31 32
3  19 22 3
3  0 4 2
3  27 29 26
3  13 11 12
3  28 17 31
3  27 19 28
3  5 21 20
3  13 16 17
3  12 14 15
3  8 7 11
3  23 1 3
3  2 5 20
3  27 30 29
3  0 2 1
3  23 22 33
3  23 3 22
3  27 28 30
3  13 21 11
3  2 3 1
3  13 15 16
3  19 18 17
3  13 12 15
3  35 34 5
3  27 26 19
3  5 34 21
3  2 4 5
3  19 26 24

CELL_TYPES 43
5
5
5
5
5
5
5
5
5
5
5
5
5
5
5
5
5
5
5
5
5
5
5
5
5
5
5
5
5
5
5
5
5
5
5
5
5
5
5
5
5
5
5

POINT_DATA 36
SCALARS point_index int 1
LOOKUP_TABLE default
0
1
2
3
4
5
6
7
8
9
10
11
12
13
14
15
16
17
18
19
20
21
22
23
24
25
26
27
28
29
30
31
32
33
34
35

